LAMMPS (7 Jan 2022)
# PREREQUISITES:
#
#     You must use moltemplate.sh to create 3 files:
#        system.data  system.in.init  system.in.settings
#      (Follow the instructions in README_setup.sh,
#       or run the file as a script using ./README_setup.sh)
#
# ------------------------------- Initialization Section --------------------

include      "system.in.init"        # specify the style of force field used
  atom_style full
  units real
  bond_style harmonic
  angle_style harmonic
  dihedral_style opls
  improper_style harmonic
  pair_style lj/cut/coul/long 11.0 11.0
  pair_modify mix geometric
  special_bonds lj/coul 0.0 0.0 0.5
  kspace_style pppm 0.0001

# ------------------------------- Atom Definition Section -------------------

read_data    "system.data"
Reading data file ...
  orthogonal box = (0 0 0) to (103.5 103.5 103.5)
  1 by 1 by 1 MPI processor grid
  reading atoms ...
  5000 atoms
  scanning bonds ...
  4 = max bonds/atom
  scanning angles ...
  6 = max angles/atom
  reading bonds ...
  4000 bonds
  reading angles ...
  6000 angles
Finding 1-2 1-3 1-4 neighbors ...
  special bond factors lj:    0        0        0.5     
  special bond factors coul:  0        0        0.5     
     4 = max # of 1-2 neighbors
     3 = max # of 1-3 neighbors
     3 = max # of 1-4 neighbors
     4 = max # of special neighbors
  special bonds CPU = 0.001 seconds
  read_data CPU = 0.014 seconds

# ------------------------------- Settings Section --------------------------

include      "system.in.settings"    # load the force field parameters
  pair_coeff 1 1 0.066 3.5
  pair_coeff 2 2 0.03 2.5
  bond_coeff 1 340.0 1.09
  angle_coeff 1 33.0 107.8
  set type 1 charge -0.24
Setting atom values ...
  1000 settings made for charge
  set type 2 charge 0.06
Setting atom values ...
  4000 settings made for charge
include      "system.in.charges"     # load the charge of each atom
  set type 1 charge -0.24
Setting atom values ...
  1000 settings made for charge
  set type 2 charge 0.06
Setting atom values ...
  4000 settings made for charge

# ------------------------------- Run Section -------------------------------


# -- minimization protocol --

thermo        500
minimize 1.0e-4 1.0e-6 100000 400000
WARNING: Using 'neigh_modify every 1 delay 0 check yes' setting during minimization (../min.cpp:187)
PPPM initialization ...
  using 12-bit tables for long-range coulomb (../kspace.cpp:340)
  G vector (1/distance) = 0.13982374
  grid = 15 15 15
  stencil order = 5
  estimated absolute RMS force accuracy = 0.025711481
  estimated relative force accuracy = 7.7429363e-05
  using double precision KISS FFT
  3d grid and FFT values/proc = 8000 3375
  generated 1 of 1 mixed pair_coeff terms from geometric mixing rule
Neighbor list info ...
  update every 1 steps, delay 0 steps, check yes
  max neighbors/atom: 2000, page size: 100000
  master list distance cutoff = 13
  ghost atom cutoff = 13
  binsize = 6.5, bins = 16 16 16
  1 neighbor lists, perpetual/occasional/extra = 1 0 0
  (1) pair lj/cut/coul/long, perpetual
      attributes: half, newton on
      pair build: half/bin/newton
      stencil: half/bin/3d
      bin: standard
Per MPI rank memory allocation (min/avg/max) = 10.85 | 10.85 | 10.85 Mbytes
Step Temp E_pair E_mol TotEng Press 
       0            0    13.473059    169.81587    183.28893    62.917711 
       2            0     13.46648    168.45644    181.92292    1.7188027 
Loop time of 0.0193548 on 1 procs for 2 steps with 5000 atoms

100.0% CPU use with 1 MPI tasks x no OpenMP threads

Minimization stats:
  Stopping criterion = energy tolerance
  Energy initial, next-to-last, final = 
      183.288930481478   181.923003048622   181.922915101734
  Force two-norm initial, final = 43.104107 0.12623321
  Force max component initial, final = 0.68269501 0.0017082284
  Final line search alpha, max atom move = 1 0.0017082284
  Iterations, force evaluations = 2 4

MPI task timing breakdown:
Section |  min time  |  avg time  |  max time  |%varavg| %total
---------------------------------------------------------------
Pair    | 0.0083165  | 0.0083165  | 0.0083165  |   0.0 | 42.97
Bond    | 0.0016493  | 0.0016493  | 0.0016493  |   0.0 |  8.52
Kspace  | 0.0089251  | 0.0089251  | 0.0089251  |   0.0 | 46.11
Neigh   | 0          | 0          | 0          |   0.0 |  0.00
Comm    | 0.00012378 | 0.00012378 | 0.00012378 |   0.0 |  0.64
Output  | 0          | 0          | 0          |   0.0 |  0.00
Modify  | 0          | 0          | 0          |   0.0 |  0.00
Other   |            | 0.0003401  |            |       |  1.76

Nlocal:           5000 ave        5000 max        5000 min
Histogram: 1 0 0 0 0 0 0 0 0 0
Nghost:           5985 ave        5985 max        5985 min
Histogram: 1 0 0 0 0 0 0 0 0 0
Neighs:          90000 ave       90000 max       90000 min
Histogram: 1 0 0 0 0 0 0 0 0 0

Total # of neighbors = 90000
Ave neighs/atom = 18
Ave special neighs/atom = 4
Neighbor list builds = 0
Dangerous builds = 0

# Optional: write the coordinates after minimization
write_data   system_after_min.data
System init for write_data ...
PPPM initialization ...
  using 12-bit tables for long-range coulomb (../kspace.cpp:340)
  G vector (1/distance) = 0.13982374
  grid = 15 15 15
  stencil order = 5
  estimated absolute RMS force accuracy = 0.025711481
  estimated relative force accuracy = 7.7429363e-05
  using double precision KISS FFT
  3d grid and FFT values/proc = 8000 3375
  generated 1 of 1 mixed pair_coeff terms from geometric mixing rule


# -- simulation protocol --


timestep        1.0
dump            1 all custom 2500 traj_npt.lammpstrj id mol type x y z ix iy iz
thermo_style    custom step time temp press vol density pe etotal epair ebond eangle edihed
fix             fxnpt all npt temp 300.0 300.0 100.0 iso 1.0 1.0 1000.0 drag 1.0

run             500000
PPPM initialization ...
  using 12-bit tables for long-range coulomb (../kspace.cpp:340)
  G vector (1/distance) = 0.13982374
  grid = 15 15 15
  stencil order = 5
  estimated absolute RMS force accuracy = 0.025711481
  estimated relative force accuracy = 7.7429363e-05
  using double precision KISS FFT
  3d grid and FFT values/proc = 8000 3375
  generated 1 of 1 mixed pair_coeff terms from geometric mixing rule
Per MPI rank memory allocation (min/avg/max) = 9.723 | 9.723 | 9.723 Mbytes
Step Time Temp Press Volume Density PotEng TotEng E_pair E_bond E_angle E_dihed 
       2            2            0    1.7188027    1108717.9  0.024027777    181.92292    181.92292     13.46648 1.4398946e-05    168.45642            0 
     500          500 5.8609095e-05    1.7122247    1109931.3  0.024001509    181.89234    181.89321    13.435682 1.1724249e-05    168.45665            0 
    1000         1000 0.00041434931    1.7008369    1112659.7  0.023942653     181.8218    181.82797    13.365348 8.2614331e-06    168.45644            0 
    1500         1500 0.0017248775    1.6895882    1116173.7  0.023867276    181.73097    181.75667    13.274447 8.257277e-06    168.45651            0 
    2000         2000 0.0058521969    1.6793575    1120110.5   0.02378339    181.62875    181.71595    13.172057 1.992637e-05    168.45667            0 
    2500         2500  0.017915872    1.6663534    1124255.7  0.023695701    181.52625    181.79321    13.069772 2.1855782e-05    168.45646            0 
    3000         3000  0.024760525   0.85886707    1128247.4  0.023611865    175.38402    175.75298    6.9261556 4.4715435e-05    168.45782            0 
    3500         3500  0.043524705    2.5089626    1131528.7  0.023543394    188.32036    188.96892    19.862218 2.0641199e-05    168.45812            0 
    4000         4000   0.40340707    1.8790522    1139061.4    0.0233877    182.40634    188.41754    13.946839 0.00011364034    168.45939            0 
    4500         4500     1.138142    1.8822952    1144749.2  0.023271495    179.54856    196.50809    11.086957 0.00020589167    168.46139            0 
    5000         5000    3.6861471    4.2283159    1149211.7   0.02318113    186.42184    241.34937    17.957855 0.0005259646    168.46346            0 
    5500         5500    12.327777    5.3298991      1163005  0.022906201    161.27464     344.9717   -7.1898845 0.0014163111    168.46311            0 
    6000         6000    39.296996    4.3222475    1211519.1  0.021988944    95.801877    681.36914    -73.14346   0.17051117    168.77483            0 
    6500         6500    91.297081     24.35771      1248505   0.02133754    167.51111    1527.9353   -2.9954003    1.1305943    169.37592            0 
    7000         7000    190.94253    63.093097    1319979.7  0.020182148    135.61229    2980.8602   -47.370171    5.6014022    177.38106            0 
    7500         7500    278.80404    77.602798      1420010   0.01876045    97.221948    4251.7004   -102.79756    9.1372244    190.88228            0 
    8000         8000    298.25477    71.302239    1569092.5  0.016977984    194.27606    4638.5911   -102.95845    6.7508803    290.48363            0 
    8500         8500    295.41121    78.351741    1712775.6  0.015553717    292.16556    4694.1085    22.412695    11.342775    258.41009            0 
    9000         9000    302.98601    58.219442    1896884.4  0.014044096    270.00938    4784.8249   -23.938182     11.28718    282.66038            0 
    9500         9500    295.71414    73.175808    2079305.4  0.012811983    383.28878    4789.7457   -29.248055    11.373962    401.16288            0 
   10000        10000    300.54952    61.203331    2276748.6  0.011700908    341.80958    4820.3188   -33.364436    12.830753    362.34327            0 
   10500        10500    298.23685    56.550088    2484793.6  0.010721223    359.38582    4803.4338   -22.604956    12.215633    369.77514            0 
   11000        11000    295.16969    60.273029    2729507.7 0.0097600114    437.75816    4836.1022   -31.817151    14.213298    455.36201            0 
   11500        11500     296.1082     52.83735    2989633.1 0.0089108011    467.12193    4879.4507   -14.899203    20.056704    461.96442            0 
   12000        12000    298.40719    37.079708    3271815.8 0.0081422756    461.53292    4908.1192   -18.681514    22.183932    458.03051            0 
   12500        12500    298.69937     29.15225    3572796.4 0.0074563516    470.08403    4921.0241   -16.264873    24.810054    461.53885            0 
   13000        13000    297.74959    25.342683    3896677.9 0.0068365995     494.3506    4931.1378   -20.131743    26.939126    487.54321            0 
   13500        13500    298.63584    21.152164    4242396.2 0.0062794762    496.54819    4946.5415   -23.037209    28.437983    491.14741            0 
   14000        14000     298.5683    20.420593    4605980.1  0.005783791    515.71431    4964.7013   -12.744191    30.142919    498.31558            0 
   14500        14500    298.72332    18.766929    4992709.2 0.0053357856    525.24652    4976.5435   -11.334244    30.835473    505.74529            0 
   15000        15000    298.77422    19.509457    5404888.5 0.0049288761    531.61407    4983.6694   -17.716924    30.668445    518.66254            0 
   15500        15500    298.44469    17.352282    5844090.9 0.0045584551     545.8508    4992.9958   -11.563736    33.901599    523.51293            0 
   16000        16000    298.85398    14.726914    6312264.7 0.0042203595    553.36578    5006.6097   -10.950954     36.83987    527.47686            0 
   16500        16500    298.04825    11.414881    6807224.7  0.003913493    577.26152    5018.4991   -9.6125195    40.534268    546.33977            0 
   17000        17000    299.18446    10.660469    7332988.2 0.0036329018     567.2177    5025.3861   -8.6263595    39.920076    535.92398            0 
   17500        17500    299.14718    10.305324    7889658.9 0.0033765751    570.90753    5028.5205   -14.024661    39.265472    545.66672            0 
   18000        18000    299.08547    9.2687607    8478729.5 0.0031419832    582.67307    5039.3664    -12.01159    40.574463    554.11019            0 
   18500        18500    298.94174    8.5092062    9100797.9 0.0029272187    593.57681    5048.1285    -9.268268    42.799819    560.04526            0 
   19000        19000    298.59987    7.1894634    9754324.2 0.0027310991    604.53427    5053.9917   -9.2522301    45.643597    568.14291            0 
   19500        19500    298.65202    7.8098689     10439148 0.0025519348    611.02224    5061.2568   -5.2904708    43.939233    572.37347            0 
   20000        20000    298.84751    7.2127994     11157631 0.0023876059    614.65062    5067.7981   -7.2083751    44.528562    577.33043            0 
   20500        20500      298.961     6.651009     11907575 0.0022372335     621.6345    5076.4731   -6.3426953    46.666607    581.31059            0 
   21000        21000    299.90942    6.4128648     12684869 0.0021001421    611.36263    5080.3337   -6.3893678    45.577319    572.17467            0 
   21500        21500    299.57865    6.5169738     13495501 0.0019739931    621.96493    5086.0072   -7.2233795    47.025152    582.16316            0 
   22000        22000     299.7039     6.112666     14341343 0.0018575684    629.29977    5095.2084    -6.061018    50.240965    585.11982            0 
   22500        22500    299.68569    4.6361227     15216158 0.0017507722    633.12071    5098.7579   -5.9397664    53.541515    585.51896            0 
   23000        23000    299.87641    4.5555065     16119933 0.0016526139    635.69859    5104.1779   -6.5983525    51.405409    590.89154            0 
   23500        23500    299.26941    4.7871116     17054618 0.0015620418    650.82749    5110.2618   -4.2821296    53.324713    601.78491            0 
   24000        24000    299.50282     4.144769     18015599 0.0014787199    650.64355    5113.5559   -5.6142986     54.44164    601.81621            0 
   24500        24500    299.49533    3.7476804     18998646 0.0014022065    655.90357    5118.7043   -3.1709995    54.657246    604.41733            0 
   25000        25000    298.97546    3.0560287     20005221 0.0013316537    667.48925    5122.5433   -4.3988733    53.632808    618.25531            0 
   25500        25500    299.42589    2.5446761     21036382 0.0012663787    666.94921    5128.7152   -4.2260426    58.170801    613.00445            0 
   26000        26000     299.7192    2.0950565     22082687 0.0012063761     666.2472    5132.3837   -4.1887793    63.111437    607.32454            0 
   26500        26500    299.48849     1.984422     23140119 0.0011512484      672.158    5134.8568   -5.2454743    64.775016    612.62845            0 
   27000        27000    299.37741    2.1074937     24213264 0.0011002245    678.39776    5139.4414   -4.7673597    62.226114      620.939            0 
   27500        27500    300.21862    1.8962039     25295755 0.0010531422    670.04796    5143.6265   -2.6215618     58.49311    614.17641            0 
   28000        28000    299.39366    2.2667556     26378183 0.0010099265    685.11992    5146.4056   -1.6852474    58.868086    627.93708            0 
   28500        28500    299.96709    2.1166012     27455949 0.00097028247    678.31267    5148.1432    -3.047378    61.874533    619.48552            0 
   29000        29000    300.72332    1.9623025     28526664 0.00093386405    670.48593     5151.585   -2.7666683    60.492957    612.75964            0 
   29500        29500    299.37818    2.2091434     29581553 0.0009005621    694.70163    5155.7568   -2.9612705    61.507982    636.15492            0 
   30000        30000    300.23305    2.0741001     30623959 0.00086990797    683.97972    5157.7732   -1.7122571     62.42673    623.26525            0 
   30500        30500     300.0769   0.97720154     31637671 0.00084203498    687.57212    5159.0388   -2.6671534    63.905807    626.33346            0 
   31000        31000    299.92796   0.92621664     32632520 0.00081636434    692.03192    5161.2792   -1.6233509    62.223785    631.43149            0 
   31500        31500    300.86343    0.8725821     33599216 0.00079287642    680.85073    5164.0376   -3.0664807    66.895079    617.02213            0 
   32000        32000     299.1115    1.3039456     34528916  0.000771528    711.70978     5168.791   -1.9367583    65.638556    648.00798            0 
   32500        32500    299.42176     1.175172     35412335 0.00075228098     707.8155      5169.52   -2.1185224    66.699389    643.23464            0 
   33000        33000    299.94196    1.1085353     36247488 0.00073494819    702.27506     5171.731   -1.8486002    67.775836    636.34783            0 
   33500        33500    299.22132     1.090297     37030115 0.00071941515    714.72326    5173.4409   -2.3151518    68.081344    648.95707            0 
   34000        34000    299.80426    1.4341871     37761656 0.00070547822     707.0398    5174.4439   -2.1592658    66.880809    642.31826            0 
   34500        34500    300.54528    1.4003061     38429520 0.00069321777    696.14186     5174.588   -2.8422368    66.560622    632.42348            0 
   35000        35000    298.59533    1.6050003     39048413 0.00068223069    727.99283    5177.3825   -1.9887045    62.935288    667.04624            0 
   35500        35500    300.41305    1.2127495     39614171 0.00067248728    701.23385    5177.7096   -3.7231594    70.557897    634.39911            0 
   36000        36000    300.06136    1.1567749     40134927 0.00066376167    710.51339    5181.7486   -2.0682268     69.44658    643.13504            0 
   36500        36500    300.00773    1.1010623     40588506 0.00065634408    711.55138    5181.9874    -2.938799    69.686093    644.80409            0 
   37000        37000    298.91403    1.1075008     41006685 0.00064965081    727.61908    5181.7578    1.1534354    73.650857    652.81479            0 
   37500        37500    299.43417   0.84286163     41385094 0.00064371065    721.20387    5183.0932   -3.1795988    70.492686    653.89078            0 
   38000        38000    299.04589   0.81937372     41707628 0.00063873269    728.26416    5184.3678    -1.734398    74.076179    655.92237            0 
   38500        38500    300.11705   0.65278605     41970209 0.00063473655    712.63532    5184.7003   -2.6214605     69.32855    645.92824            0 
   39000        39000    298.83129   0.69501628     42176143 0.00063163732    732.33559    5185.2415   -3.5817776    71.585684    664.33169            0 
   39500        39500    299.54504    1.2316444     42315459 0.00062955776    721.71381    5185.2553   -3.2037945    67.060501     657.8571            0 
   40000        40000    300.44115    1.1765059     42413164 0.00062810748    710.15274    5187.0472   -2.0363306    69.701939    642.48713            0 
   40500        40500    298.80705    1.3430586     42480776 0.00062710779    734.12582    5186.6705   -1.4629066    72.951125     662.6376            0 
   41000        41000    300.58223    1.3548033     42524057 0.00062646953    708.15692    5187.1536   -1.9931203     66.86514     643.2849            0 
   41500        41500    299.58827     1.284688     42555120 0.00062601224    722.74148    5186.9271     -2.27441    70.745966    654.26992            0 
   42000        42000     300.1619   0.77642178     42568312 0.00062581823    715.41432    5188.1477   -1.6727485    73.758418    643.32865            0 
   42500        42500    299.57081   0.61771905     42562295 0.00062590671    723.41797    5187.3435    -3.533499    72.263216    654.68825            0 
   43000        43000    299.68493   0.64182727     42582041 0.00062561646    722.98281    5188.6087   -1.2200482    73.046552    651.15631            0 
   43500        43500    299.07508   0.91432524     42595787 0.00062541457    732.42381    5188.9624   -1.7506582    75.161586    659.01288            0 
   44000        44000    300.32667    1.2694965     42608716 0.00062522479    713.39227    5188.5808  -0.80199391     72.50667    641.68759            0 
   44500        44500    300.58236    1.0289123     42632349 0.00062487821    709.46313    5188.4617   -1.6867676    72.975978    638.17392            0 
   45000        45000    299.70201   0.89542866     42673300 0.00062427855    722.95762    5188.8381   -1.4201135    75.955001    648.42273            0 
   45500        45500    300.22858   0.83586427     42725655 0.00062351357    714.54194    5188.2689    -1.632284    72.086623     644.0876            0 
   46000        46000    300.57763   0.92642016     42767146 0.00062290867    709.05517    5187.9833    -2.420235    69.813515    641.66189            0 
   46500        46500    300.56745   0.68144307     42796609 0.00062247983    709.87509    5188.6515   -1.5504059    71.770702    639.65479            0 
   47000        47000    300.23022   0.77822618     42821857 0.00062211282    715.24827    5188.9996   -2.9619963     71.83226    646.37801            0 
   47500        47500    300.14522   0.69602464     42867269 0.00062145377     717.4442     5189.929   -1.4764384    74.324571    644.59607            0 
   48000        48000    299.70808   0.74700106     42912506 0.00062079865    724.40333    5190.3743   -2.3812146    75.312937    651.47161            0 
   48500        48500    299.13677   0.60807426     42977721 0.00061985664    733.47404    5190.9318   -2.0135644    77.826577    657.66103            0 
   49000        49000    300.82035   0.99315596     43035366 0.00061902636    707.95393    5190.4988   -3.4171958    74.359386    637.01174            0 
   49500        49500    300.37716    1.4552747     43122247 0.00061777917    715.45437    5191.3952   -1.8607401    72.689251    644.62586            0 
   50000        50000    300.12688    1.3717606     43198439 0.00061668955    718.16977    5190.3813   -2.1013225    73.171946    647.09915            0 
   50500        50500    301.53407    1.4030597     43278061 0.00061555498    697.18007    5190.3602   -3.0450988    74.617177    625.60799            0 
   51000        51000    299.73044    1.0544264     43352305 0.00061450079    724.78236    5191.0865   -1.8650035    75.494212    651.15315            0 
   51500        51500    300.98834    1.1525403     43397121 0.0006138662     706.6301    5191.6783   -2.3407002    74.303515    634.66729            0 
   52000        52000    300.61107   0.66304574     43407832 0.00061371473    711.81841    5191.2449   -2.3585609    75.784862    638.39211            0 
   52500        52500    300.03483    0.5847097     43392916 0.00061392569    721.57547    5192.4153   -2.2479501    78.566378    645.25704            0 
   53000        53000    299.26012    1.1832872     43394446 0.00061390404    732.48646    5191.7823   -3.8707479    73.399197    662.95801            0 
   53500        53500    300.17072    1.2624697     43428311 0.00061342533    718.77425     5191.639   -3.5208289    75.550104    646.74498            0 
   54000        54000    299.82627    1.4480632     43463423 0.00061292977    724.80104    5192.5332   -2.5671546    70.841601    656.52659            0 
   54500        54500     300.1092     1.123693     43485878 0.00061261327    719.62894    5191.5769   -3.8292723    75.351142    648.10707            0 
   55000        55000    300.06529   0.93130458     43508023 0.00061230146    721.25083    5192.5445   -3.3618262    78.152435    646.46022            0 
   55500        55500      300.097    0.7943712     43522586 0.00061209658     720.8498    5192.6161   -2.6126713    75.534421    647.92805            0 
   56000        56000    300.16453   0.80974053     43516331 0.00061218456    720.83229    5193.6048   -1.9097313    73.925867    648.81616            0 
   56500        56500    298.55583    1.1319249     43503359 0.00061236711    744.53616    5193.3373   -3.3020624    77.310117     670.5281            0 
   57000        57000    300.71846    1.0179799     43521530 0.00061211142    712.64399    5193.6706   -2.3173147    80.798798     634.1625            0 
   57500        57500    300.59598    1.3001996     43551707 0.00061168729    713.98217    5193.1837   -3.0311027    69.557129    647.45614            0 
   58000        58000    300.49215    1.4128236     43596991 0.00061105193     715.9145    5193.5689   -2.1876071    72.914167    645.18794            0 
   58500        58500    300.54344    1.4789184     43634056 0.00061053288    715.47852    5193.8971   -2.5351582    72.520176     645.4935            0 
   59000        59000    300.47547    1.3803369     43670983 0.00061001663    717.59805    5195.0039   -2.1345361    72.079078     647.6535            0 
   59500        59500    299.89981    1.5516133     43696578 0.00060965932    726.90055    5195.7284   -2.4555279    75.927044    653.42904            0 
   60000        60000    300.91627    1.2748886     43718477 0.00060935393    711.64501    5195.6192     -2.16452    76.286931     637.5226            0 
   60500        60500    300.34734   0.77493435     43728695 0.00060921155    720.19153    5195.6882   -2.7602102    75.872165    647.07958            0 
   61000        61000    300.42414   0.76699447     43748786 0.00060893177    718.91903      5195.56    -3.059088    77.227452    644.75067            0 
   61500        61500    299.62132   0.70417936     43792323 0.0006083264    732.81708    5197.4952   -1.7010488    78.171398    656.34673            0 
   62000        62000    300.67083    0.6270471     43845474 0.00060758896    716.88447    5197.2014    -1.724464     74.30343    644.30551            0 
   62500        62500    299.64422    1.1140982     43904313 0.00060677469    731.88705    5196.9064    -2.627594    77.944598    656.57005            0 
   63000        63000    299.94486     1.171959     43957132 0.00060604558    727.05924    5196.5584   -2.1529889     73.32838    655.88385            0 
   63500        63500    300.68977    1.2008178     43991311 0.00060557473    716.82586     5197.425   -1.6705667    76.033204    642.46323            0 
   64000        64000    299.99703   0.78947051     44006277 0.00060536877    728.12232    5198.3989   -2.0650369    82.593837    647.59352            0 
   64500        64500    299.07594   0.68401602     44032957 0.00060500198    742.41124    5198.9625   -1.5378718    79.230388    664.71872            0 
   65000        65000    300.56838   0.88557166     44054208 0.00060471013    720.11668     5198.907   -2.0689694    78.290596    643.89506            0 
   65500        65500    299.75606   0.98886721     44063651 0.00060458055    732.28207     5198.968   -1.8744356    78.547529    655.60897            0 
   66000        66000    300.11238   0.61064641     44065634 0.00060455333    726.29834    5198.2938   -1.1010421    79.398408    648.00097            0 
   66500        66500    299.30771   0.69580893     44074032 0.00060443814    739.55051    5199.5555   -1.9993346    80.257916    661.29193            0 
   67000        67000    300.42727   0.96771701     44083840 0.00060430366    721.96405    5198.6517    -3.012872    75.797729    649.17919            0 
   67500        67500    300.14126    1.0748325     44100880 0.00060407016    727.25092    5199.6766   -1.6698984    76.820394    652.10042            0 
   68000        68000    299.93523     0.836133     44107942 0.00060397346    730.37554    5199.7312   -2.3776322    78.289646    654.46352            0 
   68500        68500    299.95042    1.0868756     44116831 0.00060385176    729.17436    5198.7563   -2.2577417    73.441616    657.99048            0 
   69000        69000    299.53275   0.98655536     44123381 0.00060376211    736.97712    5200.3354   -1.6370444    76.784594    661.82957            0 
   69500        69500    299.12228    0.8709479     44143194 0.00060349113    744.50862    5201.7505   -2.2797931     79.48341      667.305            0 
   70000        70000    299.97037   0.70384934     44197440 0.00060275043    730.66263     5200.542   -2.0162414    78.136673     654.5422            0 
   70500        70500    299.52548   0.36645216     44257534 0.00060193201    736.96474    5200.2147   -1.9718906    77.466615    661.47002            0 
   71000        71000    299.25261   0.58552172     44341047 0.0006007983    743.36491    5202.5489   -1.9007062      78.5564    666.70921            0 
   71500        71500    299.79781   0.40876229     44432786 0.00059955785    734.71247    5202.0204   -1.6309805    80.080745     656.2627            0 
   72000        72000    300.30398   0.30069687     44533005 0.00059820858    726.97035    5201.8208   -2.9800662    79.252699    650.69772            0 
   72500        72500     300.0213    0.5778556     44598049 0.00059733613    732.30145    5202.9397   -2.6276652    78.475431    656.45368            0 
   73000        73000    300.02007   0.81912566     44636036 0.00059682777    731.85554    5202.4755   -2.0580194    79.632324    654.28123            0 
   73500        73500    299.51773   0.84771745     44636854 0.00059681684    740.04106    5203.1755   -2.1081352    79.056126    663.09307            0 
   74000        74000     300.1034   0.66650446     44626368 0.00059695706     731.8233     5203.685   -1.8933176    82.925499    650.79112            0 
   74500        74500    299.93304   0.93815939     44606356 0.00059722489    732.62895    5201.9521   -3.0381254    74.074225    661.59285            0 
   75000        75000    300.10593    1.0285762     44597650 0.00059734147     733.1467     5205.046   -2.6475918     77.82051    657.97378            0 
   75500        75500    300.13349    1.1698886     44597152 0.00059734814    732.71288    5205.0229   -2.7172325    76.784476    658.64564            0 
   76000        76000    299.84305    0.9381746     44609049 0.00059718883    737.58902    5205.5711   -2.2197398    79.350339    660.45842            0 
   76500        76500    299.14033   0.98008417     44603073 0.00059726885    746.75977    5204.2706   -3.8510315    82.126128    668.48468            0 
   77000        77000    299.88817     1.053864     44609088 0.00059718831     736.5352    5205.1896  -0.63919683    79.236693     657.9377            0 
   77500        77500    300.02617    1.2316597     44635322 0.00059683732    734.00764    5204.7184   -3.5551464    80.665359    656.89742            0 
   78000        78000    300.15113    1.2784816     44685280 0.00059617006     733.5669    5206.1398   -2.7699257    80.203489    656.13334            0 
   78500        78500    299.51806     1.301617     44728209 0.00059559786    743.78662     5206.926   -2.4602193    81.057233    665.18961            0 
   79000        79000    300.73328     1.206878     44763752 0.00059512496     726.7183    5207.9658   -2.4710349    75.927452    653.26188            0 
   79500        79500    299.39405    1.2356456     44803496 0.00059459704    746.83678    5208.1282   -2.2047436    78.924134    670.11739            0 
   80000        80000     300.7907   0.72105148     44849036 0.00059399328    726.35703    5208.4601   -1.4113871    77.970245    649.79818            0 
   80500        80500    300.18451    0.9908808     44891044 0.00059343743     735.2833    5208.3535   -2.6889345    77.260175    660.71206            0 
   81000        81000    300.86808     1.161153     44922356 0.0005930238    725.76434    5209.0205   -1.3956293    80.971612    646.18836            0 
   81500        81500    299.47877    1.2800617     44932545 0.00059288931    747.02086    5209.5749   -1.5439024    78.364029    670.20074            0 
   82000        82000    299.74176    1.0213445     44942095 0.00059276333    742.95584    5209.4286   -1.7198132    78.753526    665.92213            0 
   82500        82500    300.12356   0.89923985     44947564 0.0005926912    736.99341    5209.1554   -1.3820731    79.767205    658.60827            0 
   83000        83000    301.14557    1.1028196     44956904 0.00059256808    721.36654    5208.7576   -2.6303704    80.014209     643.9827            0 
   83500        83500    299.81497    1.3968312     44983122 0.0005922227    742.89854    5210.4623   -1.7800485    76.910777    667.76781            0 
   84000        84000    300.66226    1.0477945     45016103 0.00059178881    730.11928    5210.3084   -1.9698971    81.120837    650.96834            0 
   84500        84500    300.11807    1.2072501     45051860 0.00059131912    738.00087     5210.081   -2.5300622     76.83666    663.69427            0 
   85000        85000    299.94643    0.8365892     45102781 0.00059065152    741.50285    5211.0255   -1.4115809    78.834813    664.07962            0 
   85500        85500     300.0145   0.91354506     45158625 0.00058992111     740.1349    5210.6718   -2.0261437    81.798067    660.36298            0 
   86000        86000    299.73455   0.97630117     45207574 0.00058928236    745.06475    5211.4301   -2.1533919    80.118688    667.09946            0 
   86500        86500    300.13292    0.7658132     45250685 0.00058872094    739.39342    5211.6949   -2.0682573    76.689546    664.77213            0 
   87000        87000    299.56383     1.000521     45280901 0.00058832808    747.99156     5211.813   -2.4533626    76.285926      674.159            0 
   87500        87500    299.98876    1.0834084     45305581 0.0005880076     742.3486    5212.5019   -2.5863625    80.872699    664.06226            0 
   88000        88000    300.25236    1.0357706     45331056 0.00058767716    737.80064     5211.882   -1.9704702    81.145099    658.62602            0 
   88500        88500    299.83334    1.3986735     45361345 0.00058728475    746.49301    5214.3304   -1.8274788    76.820714    671.49977            0 
   89000        89000    299.88002    1.4025579     45393280 0.00058687158    744.46002     5212.993   -1.7653619    80.771111    665.45427            0 
   89500        89500    299.50083    1.5021863     45403643 0.00058673763    751.10412    5213.9869   -1.4578676     80.54138    672.02061            0 
   90000        90000    299.48944    1.0881817     45403063 0.00058674513    751.67036    5214.3833   -1.4232047    78.876634    674.21694            0 
   90500        90500    300.58288   0.81759206     45401984 0.00058675907    734.81275    5213.8192    -1.781307    84.686264    651.90779            0 
   91000        91000    299.01411   0.75722588     45407572 0.00058668686    757.41619    5213.0462   -2.8511435    80.234205    680.03313            0 
   91500        91500     299.0575   0.32877958     45436248 0.00058631659    757.89084    5214.1674   -1.6917749    87.706788    671.87583            0 
   92000        92000    299.66838 -0.026423535     45466247 0.00058592973    749.16192    5214.5413   -1.9060179    88.282725    662.78521            0 
   92500        92500    299.88102   0.43399494     45484268 0.00058569758    745.50198    5214.0499   -2.4575257    83.185135    664.77437            0 
   93000        93000    299.86509   0.82180577     45489070 0.00058563575    745.64768    5213.9582   -2.6358224    78.605395    669.67811            0 
   93500        93500    300.49606   0.99487749     45516332 0.00058528499    736.68905    5214.4018   -3.0507444    82.286223    657.45357            0 
   94000        94000    299.86682    1.3960135     45568213 0.00058461863    747.00456    5215.3409   -2.1906895    81.608816    667.58644            0 
   94500        94500    299.99177    1.2281032     45621630 0.00058393411    745.39423    5215.5924   -2.2032239    75.390471    672.20699            0 
   95000        95000    300.62274    1.1252483     45679640 0.00058319255     736.6651    5216.2654   -1.5039739    81.187881    656.98119            0 
   95500        95500    299.76507    1.2133297     45719008 0.00058269037    749.62539    5216.4456   -1.9712214      81.8884    669.70822            0 
   96000        96000    300.69915   0.98297448     45739970 0.00058242334     736.8316    5217.5706   -1.2565075    86.653319    651.43479            0 
   96500        96500    300.58334    1.5318415     45764055 0.00058211682    737.78979    5216.8031    -2.749948    78.172417    662.36732            0 
   97000        97000    300.28059    1.4005274     45806464 0.00058157787    742.35265    5216.8546   -3.0240133    80.540423    664.83624            0 
   97500        97500    299.97838    1.2691536     45855046 0.00058096171     747.7718    5217.7705   -2.3099695    84.868689    665.21308            0 
   98000        98000    299.57186   0.97185789     45885893 0.00058057116    755.26887      5219.21   -1.6501595    85.950782    670.96825            0 
   98500        98500    300.40561    1.0167351     45908250 0.00058028842    742.11171    5218.4766   -2.5845958    80.144013     664.5523            0 
   99000        99000    299.79533    1.2416289     45915317 0.00058019911    751.18191     5218.453   -2.9341307    80.359909    673.75614            0 
   99500        99500    300.99728   0.89905094     45931644 0.00057999287    732.87673    5218.0582    -2.012287    82.487756    652.40126            0 
  100000       100000    299.97769   0.90686187     45951368 0.00057974391    749.49706    5219.4855   -2.5860799    86.140404    665.94274            0 
  100500       100500    299.86445    0.9403858     45975785 0.00057943603    751.31214    5219.6132   -2.5536332    85.906364    667.95941            0 
  101000       101000    300.95978    1.0088579     45987653 0.00057928648    734.84929    5219.4719   -1.7741319    85.230765    651.39266            0 
  101500       101500    300.77051   0.62389887     45996201 0.00057917883    737.91185    5219.7141   -3.2168965    89.628568    651.50018            0 
  102000       102000    299.82864    0.9816523     46015473 0.00057893627    752.83984    5220.6072   -2.8388248    81.549503    674.12916            0 
  102500       102500    299.64766    1.1122945     46035629 0.00057868278    755.72504    5220.7956   -2.7071417     85.71484    672.71734            0 
  103000       103000    300.07479   0.79596174     46045726 0.00057855588    749.47082    5220.9061   -2.5232276    89.085717    662.90833            0 
  103500       103500     299.0154   0.84055635     46043548 0.00057858325    765.30055    5220.9497   -1.8118567    89.631869    677.48054            0 
  104000       104000    299.85987    1.0805537     46038459 0.00057864721    753.16651    5221.3993   -2.1997362    84.790848     670.5754            0 
  104500       104500    299.37232    1.0080025     46036647 0.00057866998    761.36602    5222.3337   -1.7048217    84.986417    678.08442            0 
  105000       105000    299.85355    1.0879952     46039361 0.00057863587    753.64818    5221.7867   -1.6423847    81.842289    673.44828            0 
  105500       105500    299.60925    1.0770494     46043558 0.00057858313    757.17285     5221.671    -2.460613    82.863681    676.76978            0 
  106000       106000    299.99855   0.85460311     46045528 0.00057855838    752.37293    5222.6722   -2.1191274    87.551349    666.94071            0 
  106500       106500    299.70026    1.2822163     46037942 0.00057865371    756.53287    5222.3872   -2.0603636    87.582266    671.01097            0 
  107000       107000    300.22093    1.2004732     46038499 0.00057864671    750.08345    5223.6963   -1.5619388    83.833636    667.81176            0 
  107500       107500     299.7846    1.3424962     46061083  0.000578363    757.68404    5224.7952   -2.1271876    81.355715    678.45552            0 
  108000       108000    299.96885    1.2570389     46116223 0.00057767147    754.64207    5224.4988  -0.42099364    85.647873    669.41519            0 
  108500       108500    300.01596     1.270039     46176837 0.00057691318    754.36142      5224.92    -1.404269    85.709799    670.05589            0 
  109000       109000    300.05922    1.3577889     46247110 0.00057603656    752.78786    5223.9912   -3.2103006     83.80587    672.19229            0 
  109500       109500    300.41219    1.4276193     46325888 0.00057505699    748.72823    5225.1912   -1.4808042    83.711461    666.49758            0 
  110000       110000    300.39201    1.4950642     46405315 0.00057407273    749.28205    5225.4443   -2.3043705    83.852172    667.73425            0 
  110500       110500    299.61843    1.2918129     46468557 0.00057329144    762.12737    5226.7625   -1.5246653    88.168793    675.48324            0 
  111000       111000    299.48654    1.2952801     46508788 0.00057279553    763.42594    5226.0957   -1.7453375    87.444934    677.72635            0 
  111500       111500    299.80858    1.6784195     46537555 0.00057244146    759.43153       5226.9    -1.849887    88.955568    672.32585            0 
  112000       112000    300.86111    1.1918964     46552318 0.00057225992    744.19818    5227.3505   -1.7200768    90.674557     655.2437            0 
  112500       112500    300.23593    1.1971834     46576708 0.00057196026    752.99413    5226.8305   -1.7502271     85.72835    669.01601            0 
  113000       113000    299.38571    1.2884998     46617080 0.00057146492    765.84375     5227.011   -1.7954774    88.008557    679.63067            0 
  113500       113500    299.77376    1.2856131     46672105 0.00057079118    760.66169    5227.6113    -1.423639    88.855514    673.22981            0 
  114000       114000    300.68568   0.85038654     46708670 0.00057034435    747.16315    5227.7014   -1.8985991    90.178012    658.88374            0 
  114500       114500    300.09539   0.46806132     46740758 0.0005699528    756.20026    5227.9425   -1.8130393     89.79196    668.22134            0 
  115000       115000    299.77626   0.34635807     46754040 0.00056979088    760.71555    5227.7025   -2.5098192    91.627416    671.59795            0 
  115500       115500    300.10014   0.51878047     46756360 0.00056976261    755.37216    5227.1852   -2.6180783    86.800956    671.18928            0 
  116000       116000    300.62598   0.95536553     46749430 0.00056984707    746.80084    5226.4494   -3.2998602    86.967997     663.1327            0 
  116500       116500    298.53293   0.76096336     46757617 0.0005697473    780.03133    5228.4912    -1.658712    92.955484    688.73456            0 
  117000       117000    300.26425   0.75030998     46771883 0.00056957352    754.66696    5228.9254   -1.9995891    87.968488    668.69806            0 
  117500       117500    299.36102   0.75754817     46800005 0.00056923126    768.29006    5229.0895   -2.3364153    93.474212    677.15227            0 
  118000       118000    300.12216   0.73487822     46828858 0.00056888054    756.13055    5228.2717   -2.3637681    90.209129    668.28519            0 
  118500       118500    299.49424    0.8284445     46854046 0.00056857472    766.06877    5228.8533   -2.0787079    89.307618    678.83986            0 
  119000       119000     299.2922    1.1108017     46856355 0.0005685467    769.27714     5229.051   -2.2595773    87.579938    683.95678            0 
  119500       119500    299.01368    1.0374548     46839117 0.00056875593     773.2908    5228.9144   -2.4339458    87.860815    687.86393            0 
  120000       120000    299.95532    1.0471019     46818959 0.00056900081    758.67936    5228.3345   -3.2596634    88.111991    673.82703            0 
  120500       120500    300.31663     1.328523     46793619 0.00056930894    753.34251    5228.3814   -3.2543649    83.600323    672.99655            0 
  121000       121000    299.85251    1.2295005     46762731 0.00056968499    761.17738    5229.3005   -2.7291804    89.409267     674.4973            0 
  121500       121500    300.33796    1.1487846     46743537 0.00056991891    753.86519     5229.222   -2.5567845    87.525857    668.89611            0 
  122000       122000    299.32179    1.1976535     46743476 0.00056991966    769.91074    5230.1256    -1.845069    85.303297    686.45251            0 
  122500       122500    299.41872    1.0450042     46750108 0.00056983881    769.51377    5231.1729   0.92082751    87.353319    681.23963            0 
  123000       123000    299.97573    0.6781274     46768588 0.00056961364    760.83114    5230.7903   -1.6338891     93.97868    668.48635            0 
  123500       123500    299.45214   0.92624921     46796889 0.00056926916    769.70032    5231.8575   -2.7943133    93.076056    679.41858            0 
  124000       124000    300.07772   0.78748877     46840184 0.00056874298    759.47884    5230.9578    -1.380057    95.051756    665.80714            0 
  124500       124500    299.66043     1.342746     46867376  0.000568413    766.29167    5231.5525   -1.8990552    92.004328     676.1864            0 
  125000       125000    300.23687     1.344912     46883624 0.00056821602    756.69976    5230.5502   -2.6217147    85.413894    673.90758            0 
  125500       125500    299.66391    1.2613985     46889040 0.00056815038    766.03322    5231.3459   -1.6647969     88.72774    678.97028            0 
  126000       126000     299.3384    1.3786451     46884668 0.00056820336    771.72862     5232.191   -1.7177679    86.987034    686.45935            0 
  126500       126500    301.69221    1.1091764     46900675 0.00056800944    736.21853     5231.755    -1.359346    88.767356    648.81052            0 
  127000       127000    299.71332    1.3391359     46938932 0.00056754649    766.29235    5232.3413   -1.5537011    81.678785    686.16727            0 
  127500       127500    300.82924   0.96240146     46980140 0.00056704867    749.98246    5232.6598   -2.0801482     87.66524    664.39737            0 
  128000       128000    299.70263    1.0539259     47012031 0.00056666401    769.16701    5235.0567   -1.3246639    92.790072     677.7016            0 
  128500       128500    300.27935   0.77203707     47033453 0.00056640591     760.4593    5234.9427   -1.4320152    94.680844    667.21047            0 
  129000       129000    300.43115   0.87570179     47041003  0.000566315    758.13183    5234.8772   -1.4584109    90.883237      668.707            0 
  129500       129500    299.17697   0.88832126     47060304 0.00056608275    775.94791    5234.0047   -1.9358489    91.229092    686.65466            0 
  130000       130000     300.7502    0.9985306     47071577 0.00056594717    752.86723    5234.3668   -2.0376458    87.469803    667.43507            0 
  130500       130500    300.55158    1.2137032     47069201 0.00056597574    755.41425    5233.9542   -2.0419872    87.383191    670.07304            0 
  131000       131000    299.31346    1.1858348     47065700 0.00056601784    772.92324    5233.0139     -3.43371     89.05672    687.30023            0 
  131500       131500    299.29862    1.2622845     47088036 0.00056574935    773.90635    5233.7759   -2.7454292    87.594637    689.05714            0 
  132000       132000    300.65562    1.2917812     47143564 0.00056508299    754.92368    5235.0139   -1.6996601    92.652791    663.97055            0 
  132500       132500    299.78854    1.0477251     47202701 0.00056437503    767.86051    5235.0304   -1.6837869    90.949209    678.59509            0 
  133000       133000    299.51259   0.72841372     47274246 0.00056352091    771.52023    5234.5782    -3.047772    96.036759    678.53125            0 
  133500       133500    300.54565   0.50490072     47360983 0.00056248887    757.04824    5235.4999   -2.9712875    93.713608    666.30592            0 
  134000       134000    301.26019    1.0907501     47459304 0.00056132357    747.17884    5236.2779    -2.549304    85.600504    664.12764            0 
  134500       134500     299.8699    1.4850599     47550110 0.00056025161    768.43758    5236.8198   -1.7398145    83.586191     686.5912            0 
  135000       135000    299.85325    1.1586743     47620146 0.00055942765    769.30681    5237.4408   -1.5305567    91.148522    679.68885            0 
  135500       135500    300.90122    1.0910229     47664738 0.00055890427    754.09846    5237.8484   -1.2522209    88.664451    666.68623            0 
  136000       136000    299.78204    1.0460113     47710788 0.00055836483     770.2644    5237.3374    -1.857922    91.547165    680.57515            0 
  136500       136500    299.81619    1.0436782     47762427 0.00055776114    769.01758    5236.5995   -2.5449552    88.856714    682.70582            0 
  137000       137000    299.57116   0.87328243     47801541 0.00055730475    772.90949    5236.8402   -2.0288367    90.628228     684.3101            0 
  137500       137500    299.93347   0.74728994     47825931 0.00055702054     767.4003    5236.7298   -1.9105112    93.333295    675.97751            0 
  138000       138000    299.81945    1.0696325     47841285 0.00055684178    769.77743    5237.4079   -1.8440187    88.149832    683.47161            0 
  138500       138500    299.95655    1.3643561     47858774 0.00055663829     767.7001    5237.3735   -1.5595786    87.909615    681.35006            0 
  139000       139000     300.4904    1.0352151     47883672 0.00055634885     759.1281    5236.7564   -1.4088688    89.973046    670.56392            0 
  139500       139500    300.75929   0.94658859     47943252 0.00055565747    756.06733    5237.7023   -1.9593803    91.176093    666.85062            0 
  140000       140000    299.66253    0.9572331     47995279 0.00055505513    772.88601    5238.1782   -1.9287297    88.200627    686.61411            0 
  140500       140500    299.98282   0.87907725     48028723 0.00055466863     769.5263    5239.5911   -2.3191991    90.161982    681.68352            0 
  141000       141000    300.57899   0.89658171     48029942 0.00055465455    759.92445    5238.8728  -0.35173244    91.578306    668.69788            0 
  141500       141500    300.88756   0.96062859     48023156 0.00055473292    755.83527    5239.3817   -2.3641868    91.352557     666.8469            0 
  142000       142000     299.5036    1.1791987     47985606 0.00055516702    776.87449    5239.7985   -2.0956019    92.708968    686.26113            0 
  142500       142500    300.26676   0.97908948     47955710 0.00055551312    766.04308    5240.3389   -1.5175593    90.751391    676.80925            0 
  143000       143000    299.60719    1.0236263     47944922 0.00055563811     775.7792    5240.2467   -1.9164655    92.803309    684.89236            0 
  143500       143500     300.3996   0.95212548     47945095 0.00055563611    763.88768     5240.163   -1.8375929    93.897115    671.82816            0 
  144000       144000    299.25715    1.4309839     47952054 0.00055555547     780.5726    5239.8242   -1.4273605    87.655046    694.34491            0 
  144500       144500    299.60228    1.2062836     47964966 0.00055540592    775.02913    5239.4235    -2.843377    97.258833    680.61367            0 
  145000       145000    300.03245    1.5479131     47989432 0.00055512276    770.63624    5241.4406    -1.997099    91.164159    681.46918            0 
  145500       145500    299.86944    1.0822176     48034705 0.00055459955    773.81081    5242.1862   -2.1145706    91.232874    684.69251            0 
  146000       146000    299.24958    1.1087747     48083373 0.00055403821    783.38929     5242.528   -2.1047712    92.034261     693.4598            0 
  146500       146500    300.28085   0.96702914     48130042 0.00055350099     769.2102    5243.7159   -2.8499914      94.6561    677.40409            0 
  147000       147000    299.24534   0.96865008     48207556  0.000552611     785.1352    5244.2107   -2.6474325    94.933059    692.84957            0 
  147500       147500    299.22408   0.92026347     48264952 0.00055195384    785.06954    5243.8284   -2.5263292    96.462629    691.13324            0 
  148000       148000    298.89672    1.1625941     48294730 0.00055161352    789.90662    5243.7874   -2.7124413    91.425935    701.19313            0 
  148500       148500    299.44794   0.99301199     48326801 0.00055124745    781.99901    5244.0935    -2.904776    93.841174    691.06261            0 
  149000       149000    299.13223    1.0014491     48351709 0.00055096348    786.85346    5244.2436   -2.1842164    92.179897    696.85778            0 
  149500       149500    300.57139   0.62495275     48373679 0.00055071325    765.37498    5244.2101   -2.4993966    97.080661    670.79372            0 
  150000       150000    299.82907   0.68729108     48398982 0.00055042533    776.67158    5244.4454   -2.0273488    91.955788    686.74314            0 
  150500       150500    299.70284   0.60112881     48410516 0.00055029419    779.13815     5245.031   -2.1689211    89.107843    692.19923            0 
  151000       151000    299.28102    1.0171344     48414846 0.00055024498    785.31909    5244.9264   -2.7369003    95.925843    692.13015            0 
  151500       151500    300.43806    1.3574279     48422851 0.00055015401    767.46706    5244.3154   -2.6649657    91.313443    678.81858            0 
  152000       152000    301.06236    1.3718923     48415491 0.00055023765    757.57833    5243.7295    -3.564632    89.183782    671.95918            0 
  152500       152500    300.35064    1.0435804     48399067 0.00055042437    769.80988    5245.3556   -2.0184837    93.782991    678.04537            0 
  153000       153000    299.74566   0.89143521     48368449 0.00055077279    781.45564    5247.9866   -1.3313921     95.90656    686.88047            0 
  153500       153500    299.95387    1.0185618     48366635 0.00055079345    777.55131    5247.1848   -2.4986444    95.107273    684.94269            0 
  154000       154000     299.7692    1.2835581     48402672 0.00055038338    782.15125     5249.033   -1.2704868    89.856306    693.56543            0 
  154500       154500    300.78968    1.1010648     48447690 0.00054987195    765.83814     5247.926   -2.9863446    93.410488      675.414            0 
  155000       155000    301.44057    1.0632683     48503983 0.00054923378    757.26516     5249.052   -2.1848921    92.912821    666.53723            0 
  155500       155500    299.08047    1.2885854     48541605 0.00054880809    791.96219     5248.581   -2.4008314    92.849699    701.51332            0 
  156000       156000    298.36669   0.95033125     48560030 0.00054859987    804.38768    5250.3704   -1.7268784    98.012717    708.10184            0 
  156500       156500    300.56849   0.84592155     48567015 0.00054852096    769.63736    5248.4292    -3.678889    92.837595    680.47866            0 
  157000       157000    300.03161   0.38480735     48570518 0.00054848141    777.95078    5248.7426   -3.1298966    95.277354    685.80332            0 
  157500       157500    299.05728   0.49645072     48578310 0.00054839343    793.77445    5250.0477   -2.3709364    98.241656    697.90373            0 
  158000       158000    299.07075   0.63854646     48587663 0.00054828787    792.90504    5249.3791   -3.0704336    94.595855    701.37962            0 
  158500       158500     299.5997   0.84145659     48618758 0.0005479372    784.75819    5249.1142   0.54980088    101.21331    682.99508            0 
  159000       159000    300.82069    0.8690123     48666646 0.00054739803    767.61432    5250.1643   -2.7731417    94.822955     675.5645            0 
  159500       159500     299.7855    1.3905987     48726717 0.00054672319    784.71005    5251.8346    -2.441096    91.978333    695.17282            0 
  160000       160000    299.92026    1.1292604     48789119 0.00054602391    783.24351    5252.3761   -1.7509874     93.54327    691.45123            0 
  160500       160500    299.84398    1.0309969     48834278 0.00054551899    783.77331    5251.7693   -2.5340596    95.864838    690.44253            0 
  161000       161000    299.61974    1.0591266     48868989 0.00054513151    786.44164    5251.0962   -3.4036804    99.030424     690.8149            0 
  161500       161500    299.95587    0.8628388     48910972 0.00054466359    782.10532    5251.7686   -2.8540198    98.243204    686.71614            0 
  162000       162000    299.78878   0.90015512     48952877 0.00054419735    785.59564    5252.7691    -1.259616    98.757895    688.09736            0 
  162500       162500    300.65517    1.0782244     48974791 0.00054395385    773.15574    5253.2394   -1.8568029    93.175963    681.83658            0 
  163000       163000    300.49165   0.82653047     48988054 0.00054380658     775.3666    5253.0136   -2.8049499    102.47798    675.69358            0 
  163500       163500    300.01238    1.0567697     48997720 0.00054369929     782.7362    5253.2415   -2.8647794    98.307277     687.2937            0 
  164000       164000    300.87109     1.045161     48995173 0.00054372756    770.85048    5254.1514    -1.702549    93.165933     679.3871            0 
  164500       164500    301.16424    1.0400743     48980594 0.0005438894    766.52533    5254.1946   -1.2350656    96.038076    671.72232            0 
  165000       165000    299.95354    1.2810282     48977184 0.00054392727    784.99109    5254.6196   -2.2390191    97.120597    690.10951            0 
  165500       165500    299.31296    1.1988406     49004640 0.00054362253    793.60118    5253.6844   -2.2447241    95.927486    699.91842            0 
  166000       166000     299.4269    1.2052682     49033224 0.00054330562    791.30312    5253.0841   -3.2442934    93.653075    700.89434            0 
  166500       166500    299.95604   0.86811725     49072863 0.00054286676    782.85199    5252.5178   -3.8660322    101.25846    685.45956            0 
  167000       167000    299.98384   0.82882814     49125177 0.00054228865    783.44671    5253.5267   -2.5994354     99.97126    686.07488            0 
  167500       167500    299.61178    0.7871631     49180485 0.00054167879     789.7764    5254.3124   -2.6942544    102.93435    689.53631            0 
  168000       168000     300.3191   0.84612076     49249173 0.00054092332    782.55513     5257.631   -1.3154935    100.42283    683.44779            0 
  168500       168500    299.25421    1.0028542     49315690 0.00054019371    797.78845    5256.9963   -2.1999481    98.507924    701.48047            0 
  169000       169000     300.0808    1.1658218     49388682 0.00053939536    785.16967    5256.6945   -2.0713498      96.8865    690.35452            0 
  169500       169500    300.52019    1.3532539     49452897 0.00053869495     778.3616    5256.4338   -3.0318454    96.139976    685.25347            0 
  170000       170000    300.78738      1.24723     49497331 0.00053821136    775.43476    5257.4884   -2.2736267    94.204769    683.50362            0 
  170500       170500    299.30892    1.3273771     49521966 0.00053794363    799.26832    5259.2913   -1.2329339    99.486688    701.01457            0 
  171000       171000    299.32844    1.3165812     49523388 0.00053792818     799.0791     5259.393   -1.8318422    104.04432    696.86662            0 
  171500       171500    299.53963    1.5279576     49526571 0.00053789361     796.4661    5259.9269   -1.3068385    100.02645    697.74649            0 
  172000       172000    299.49681    1.3185997     49531655 0.0005378384    796.57077    5259.3935   -2.1757771    104.12358    694.62297            0 
  172500       172500    299.76833    1.3301226     49551802 0.00053761972    791.21701    5258.0857   -1.5496004    95.958725    696.80788            0 
  173000       173000    299.58751    1.2972463     49582745 0.00053728421    795.01325    5259.1876   -1.4351104    98.330314    698.11804            0 
  173500       173500    299.78281    1.4888769     49618105 0.00053690132    791.61048    5258.6949    1.5242085    93.440335    696.64594            0 
  174000       174000    300.08766    1.4739418     49662137 0.00053642528    788.10356    5259.7307   -1.5586383    95.928945    693.73325            0 
  174500       174500    300.10298    1.3622326     49692697 0.00053609539    788.32353    5260.1789    -1.319812    95.979886    693.66345            0 
  175000       175000    300.09754    1.0509202     49701326 0.00053600231    787.41134    5259.1856   -1.9881819    99.280676    690.11885            0 
  175500       175500    300.71766    1.1271735     49704419 0.00053596896     778.1135    5259.1283   -2.2308533    98.405549     681.9388            0 
  176000       176000    300.17502    1.3434967     49707081 0.00053594026    786.34851    5259.2773   -2.0538334    98.102334    690.30001            0 
  176500       176500      300.997    1.2386898     49696547 0.00053605386    774.03722    5259.2144   -2.3095053    97.600186    678.74654            0 
  177000       177000    299.83985     1.264727     49702320 0.00053599159    791.76821    5259.7027    -1.730923    99.160009    694.33913            0 
  177500       177500    300.42534    1.4136066     49718949 0.00053581233    782.14232    5258.8011   -2.8097991    95.478839    689.47328            0 
  178000       178000    300.48684    1.3669509     49748177 0.00053549753    780.86034    5258.4356   -2.5596459     92.15639     691.2636            0 
  178500       178500    299.78716    1.2320541     49792411 0.00053502181    794.45607    5261.6054   -2.0259295    98.546682    697.93532            0 
  179000       179000    299.81271    1.2403184     49845819 0.00053444855    794.33164    5261.8617   -2.1541343    97.683711    698.80206            0 
  179500       179500     300.2238   0.65279694     49903145 0.00053383461    789.10363    5262.7593   -1.5861798    97.619782    693.07003            0 
  180000       180000    300.58231   0.91802835     49955535 0.00053327475    784.09091    5263.0887   -1.4440747    94.515411    691.01957            0 
  180500       180500    299.84703   0.81310379     50024343 0.00053254124    796.00068    5264.0421   -1.3582152    103.10112    694.25777            0 
  181000       181000    300.82747    1.1590665     50088205 0.00053186226    781.65536    5264.3064   -1.9932271     97.27407    686.37452            0 
  181500       181500    300.14493    1.0375154     50133481 0.00053138193    791.08051     5263.561   -2.2380658    103.00836    690.31021            0 
  182000       182000    299.18106   0.97640225     50184767 0.00053083889    806.09695    5264.2147    -2.287166    104.75054    703.63357            0 
  182500       182500     299.0013   0.66078549     50216307 0.00053050548    809.35644    5264.7956  -0.14381057    105.69709    703.80316            0 
  183000       183000    300.11126    0.7479395     50233459 0.00053032433    793.56216    5265.5408   -1.3706537     101.7609    693.17191            0 
  183500       183500    300.43542   0.88111685     50225442 0.00053040899    788.48598    5265.2951   -1.6742433    97.324455    692.83577            0 
  184000       184000    299.44674   0.90202327     50222735 0.00053043758    803.62838    5265.7051   -1.1752654    100.48358    704.32007            0 
  184500       184500    299.70444     1.024571     50228864 0.00053037285    799.49156    5265.4082   -1.8665479    103.93846    697.41964            0 
  185000       185000    299.19778   0.88963293     50244505 0.00053020775    807.81351    5266.1804   -1.6155648    102.09145    707.33762            0 
  185500       185500    299.85668    1.1616804     50239994 0.00053025535    796.89025    5265.0755       -2.482    101.96282    697.40943            0 
  186000       186000    299.56283    1.2683119     50234170 0.00053031683    801.29153    5265.0981   -2.0547399     100.1946    703.15166            0 
  186500       186500     300.5333     1.324398     50228909 0.00053037237    787.89683    5266.1645   -1.9585462    102.17535    687.68003            0 
  187000       187000    299.72511    1.1969944     50239051 0.00053026531    799.94804    5266.1727   -1.3895889    101.87962    699.45801            0 
  187500       187500    300.24529    1.3114907     50246608 0.00053018556     792.0755    5266.0514   -1.3391797    99.185395    694.22929            0 
  188000       188000    300.99489    1.1216846     50255881 0.00053008774    780.83829    5265.9841   -2.1139374    104.18517    678.76705            0 
  188500       188500    298.71262     1.330995     50284424 0.00052978683     815.5797    5266.7172   -1.0954435    99.654893    717.02025            0 
  189000       189000    300.77446    1.2809051     50307936 0.00052953924    784.27224    5266.1334   -1.7970508    99.192686     686.8766            0 
  189500       189500      300.359    1.0475599     50350632 0.0005290902    792.52671     5268.197   -1.4263678    99.289223    694.66386            0 
  190000       190000    300.54917   0.94582217     50405800 0.00052851113    789.73303    5268.2371  -0.97710038    104.16389    686.54624            0 
  190500       190500    299.52968    1.0948989     50449739 0.00052805082    804.73124    5268.0438   -2.0663497    103.03237    703.76522            0 
  191000       191000    300.75514    1.0870207     50481490 0.00052771869    785.26728    5266.8405   -2.4838309    98.696207    689.05491            0 
  191500       191500    299.64844   0.97027385     50517181 0.00052734586    802.21646    5267.2986   -2.4124697    101.33196    703.29697            0 
  192000       192000    300.30956   0.96834844     50547159 0.0005270331    792.36716    5267.3007   -2.3895531    103.39855    691.35816            0 
  192500       192500    299.07638   0.89890061     50573856 0.00052675489    811.35153    5267.9095     -1.28315    104.33437    708.30031            0 
  193000       193000    300.06403    1.0209637     50584470 0.00052664436    796.71315    5267.9881   -1.7057015    97.152475    701.26637            0 
  193500       193500    300.23443    1.1873886     50591323 0.00052657302    795.55426    5269.3684    -1.917006     100.9882    696.48306            0 
  194000       194000    299.12114    0.9020688     50613062 0.00052634686    811.89423    5269.1191   -1.8761807    101.62396    712.14645            0 
  194500       194500    301.25354   0.77609982     50644098 0.00052602429    780.81329    5269.8133   -1.7149918     105.4815    677.04678            0 
  195000       195000    300.29196   0.68546149     50672821 0.00052572613    795.15301    5269.8244  -0.92485264    101.17686    694.90101            0 
  195500       195500      299.687   0.73809563     50694848 0.00052549769     804.1496    5269.8065   -1.7979798    103.91283    702.03476            0 
  196000       196000    300.95547   0.43547111     50712266 0.00052531721    786.00177    5270.5602  -0.79076766    105.36644     681.4261            0 
  196500       196500    300.31374   0.81299918     50722131 0.00052521503    795.29418    5270.2901   -1.2770775    99.715402    696.85586            0 
  197000       197000    299.46152    1.1291748     50736325 0.0005250681    809.10235    5271.3993   -1.5814867    106.57922    704.10461            0 
  197500       197500    300.64911    1.2633923     50769964 0.00052472021    792.02069    5272.0139   -1.4076152    100.29359    693.13472            0 
  198000       198000    299.80919      1.22203     50805489 0.0005243533    803.71382    5271.1914   -2.7737124    104.02337    702.46417            0 
  198500       198500     301.4437    1.0170191     50821638 0.00052418668    778.79943    5270.6329   -1.8150065    100.78943    679.82501            0 
  199000       199000    301.20473     1.056111     50832426 0.00052407543    782.22426    5270.4969   -2.8779801    98.796299    686.30594            0 
  199500       199500    301.13371    1.0412341     50850219 0.00052389205    784.46878    5271.6831   -1.9311589    102.23409    684.16585            0 
  200000       200000    300.27468    0.7729679     50838408 0.00052401377    798.12058    5272.5344   -2.1851483    103.84375    696.46198            0 
  200500       200500    300.75611    0.9270635     50836136 0.00052403719    790.65177    5272.2394   -1.8806648    103.71218    688.82025            0 
  201000       201000    300.76422    1.0869355     50826616 0.00052413534    790.21477    5271.9232   -1.8239431    101.45769    690.58103            0 
  201500       201500    300.66115    1.2713179     50821692 0.00052418613    792.59602    5272.7687   -1.0419131    102.23118    691.40675            0 
  202000       202000    300.13679    1.4849378     50817289 0.00052423154    800.75783     5273.117   -1.3457867    101.37532     700.7283            0 
  202500       202500    299.48992    1.3346943     50827025 0.00052413112    809.93885     5272.659   -1.3573739    101.33132    709.96491            0 
  203000       203000    300.03541    1.3288359     50861262 0.00052377831    800.92727    5271.7757   -1.9309311    96.965683    705.89251            0 
  203500       203500    300.22642     1.322713     50892218 0.00052345972    798.88304    5272.5778    -2.091242    95.900437    705.07385            0 
  204000       204000    300.60357    1.0550657     50936975 0.00052299976    793.18705    5272.5017     -2.16866    96.953384    698.40232            0 
  204500       204500    299.98671   0.96559979     50986369 0.0005224931    803.04197    5273.1648   -1.4117675    100.13248    704.32125            0 
  205000       205000     301.0134   0.88609218     51013292 0.00052221734    787.38937    5272.8109   -2.1228015    100.96456    688.54762            0 
  205500       205500    300.53353    1.0476395     51025471 0.0005220927    795.36186    5273.6328   -1.3842221    98.188293    698.55779            0 
  206000       206000    299.33025    1.1094395     51030082 0.00052204552     812.3673    5272.7081   -3.0574431    103.19837    712.22637            0 
  206500       206500    300.01625     0.890834     51062344 0.00052171569    802.89441    5273.4574   -1.9908589    100.02328    704.86199            0 
  207000       207000     299.6722   0.90883686     51095950 0.00052137256    808.43333    5273.8696   -2.0310559    107.88565    702.57874            0 
  207500       207500    299.62655   0.90546315     51134117 0.0005209834     809.1954    5273.9514   -2.2111124     109.8988    701.50771            0 
  208000       208000    300.12169    1.2294619     51177991 0.00052053676    801.27134    5273.4055   -2.1664584    104.72287    698.71492            0 
  208500       208500    301.33247   0.89917379     51239993 0.0005199069    782.80712    5272.9832   -1.8648545    97.492611    687.17937            0 
  209000       209000    300.43997   0.86249537     51274359 0.00051955844    797.22433    5274.1012    -1.398588    104.34414    694.27878            0 
  209500       209500    300.58856   0.73221712     51293793 0.00051936159     796.0403    5275.1313  -0.75887458    107.73757    689.06161            0 
  210000       210000    299.73829   0.68530027     51298656 0.00051931236    808.83115    5275.2523  -0.73110652    99.554747    710.00751            0 
  210500       210500    299.18885   0.91532868     51314376 0.00051915327    816.37721    5274.6111   -1.5154341    101.30696    716.58568            0 
  211000       211000    300.62022   0.87100422     51319825 0.00051909814    794.97218     5274.535   -2.0832732    106.22867    690.82679            0 
  211500       211500    300.11664   0.91308198     51327205 0.00051902351    802.61669    5274.6756   -1.6622794     102.9678    701.31117            0 
  212000       212000    300.07602   0.89956571     51329272 0.00051900261    802.75083    5274.2045   -2.6077441    103.54502    701.81355            0 
  212500       212500    299.72329    1.0130826     51349833 0.0005187948    808.09761    5274.2952   -2.1927818    104.74412    705.54627            0 
  213000       213000    300.32361    1.1442887     51383879 0.00051845104    798.63351    5273.7765   -3.0377177    103.97119    697.70004            0 
  213500       213500     300.1229     1.512252     51433639 0.00051794947    803.34793       5275.5   -1.2343691    98.336168    706.24613            0 
  214000       214000    300.82655    1.1424751     51449713 0.00051778765    793.21066    5275.8479   -1.6190031     105.2825    689.54716            0 
  214500       214500    298.53356    1.3186842     51449371 0.00051779109    827.97778     5276.447   -1.5825859    104.87574    724.68463            0 
  215000       215000    299.69821    1.5256317     51453344 0.0005177511    811.91153    5277.7354   -2.0797338    102.80415    711.18711            0 
  215500       215500    300.25926    1.7001626     51471308 0.00051757041    803.16937    5277.3535   0.11144442    99.888229    703.16969            0 
  216000       216000    300.40023    1.1825518     51495215 0.00051733012    800.16238     5276.447   -3.4875621    104.78104    698.86891            0 
  216500       216500    298.99579    1.2748634     51520199 0.00051707925    822.82865    5278.1856   -1.5900707     106.9199    717.49882            0 
  217000       217000    301.99505   0.82541136     51525366 0.0005170274    777.75756    5277.8068   -2.4005499    100.91774    679.24037            0 
  217500       217500    299.88863   0.96393311     51530068 0.00051698022    809.01106    5277.6724    -2.373868    102.44293      708.942            0 
  218000       218000    299.89972   0.90107869     51551760 0.00051676268    809.28209    5278.1087   -1.7679613    109.60602    701.44403            0 
  218500       218500    299.07144   0.67621736     51565750 0.00051662249    822.20016    5278.6844   -2.0847216    107.35187    716.93301            0 
  219000       219000     300.0864   0.79880755     51575088 0.00051652895    807.78814    5279.3964   -2.0104256    106.94314    702.85542            0 
  219500       219500     299.4591   0.74675448     51606695 0.0005162126    816.68885    5278.9497   -2.2335049    105.86798    713.05438            0 
  220000       220000    300.43103   0.63344004     51656497 0.00051571491    802.65231    5279.3959   -1.9355428    106.64004    697.94781            0 
  220500       220500    299.53982   0.85540992     51695227 0.00051532854    816.83247    5280.2962   -1.6541727     105.7481    712.73854            0 
  221000       221000    300.48212   0.80232768     51722194 0.00051505985    803.40376    5280.9087   -1.4958746    107.02243     697.8772            0 
  221500       221500    299.75026   0.96485952     51745037 0.00051483249    814.65369    5281.2531   -1.6170064    107.69319     708.5775            0 
  222000       222000    300.95339   0.70977561     51753450 0.00051474879    795.91659     5280.444   -1.3454701    105.72609    691.53597            0 
  222500       222500    300.16187   0.85655395     51768821 0.00051459595     808.3526    5281.0855    -1.704713    105.20008    704.85724            0 
  223000       223000    301.21826   0.63462547     51766114 0.00051462287    792.46792    5280.9422   -2.0789068     109.1641    685.38272            0 
  223500       223500    299.66033   0.97420609     51758616 0.00051469742    816.40159    5281.6609   -1.3328609    106.45824    711.27621            0 
  224000       224000    300.15623   0.95520937     51748588 0.00051479715     808.0944    5280.7432   -1.0858009    102.22883    706.95137            0 
  224500       224500    299.53182    1.1331325     51745559 0.00051482729    816.83399    5280.1785   -2.1693427    97.603484    721.39985            0 
  225000       225000     299.4173    1.2014381     51760371 0.00051467996    819.94553    5281.5836   -1.7024217    102.81618    718.83178            0 
  225500       225500    300.05795     1.012766     51788273 0.00051440267    810.55164    5281.7359   -1.4937297    109.23569    702.80968            0 
  226000       226000    299.57828    1.1309173     51828769 0.00051400075    817.30693    5281.3437   -1.9943286    108.22558    711.07568            0 
  226500       226500    300.77191    1.2008513     51899523 0.00051330001    799.62106    5281.4441   -1.5267264    104.35576    696.79203            0 
  227000       227000    300.36639    1.3387989     51968179 0.00051262189    805.44659     5281.227   -1.6599888    103.73058      703.376            0 
  227500       227500    300.74567    1.2359296     52019269 0.00051211842    801.15412    5282.5862    -1.629352    105.12145    697.66202            0 
  228000       228000    300.80705   0.99735811     52086056 0.00051146176     800.2364    5282.5831   -1.7632645    103.05815    698.94151            0 
  228500       228500    301.24053    1.4176095     52124904 0.00051108057    793.49946    5282.3055   -2.4954541    106.74714    689.24777            0 
  229000       229000    300.48415    1.1423082     52147093 0.00051086311    805.21259    5282.7477   -1.9017733    107.04964    700.06472            0 
  229500       229500    300.39081    0.9254229     52181031 0.00051053084    806.41735    5282.5617   -2.2312764    105.83069    702.81793            0 
  230000       230000    298.76546     1.186797     52219561 0.00051015416    831.98459    5283.9094   -2.0579585    104.59291    729.44964            0 
  230500       230500     299.4785     1.182563     52268974 0.00050967187    822.68154    5285.2315   -1.5069668     104.8373    719.35121            0 
  231000       231000    299.81264    1.1293186     52308377 0.00050928795    817.05077    5284.5797   -2.7010258     107.9299     711.8219            0 
  231500       231500    299.60386     1.236222     52316649 0.00050920742    820.41051    5284.8284   -3.1355428     107.5434    716.00265            0 
  232000       232000    300.22879    1.2360205     52317129 0.00050920275     810.3666    5284.0966   -3.1003104     109.6295    703.83741            0 
  232500       232500    300.20068    1.2492346     52312485 0.00050924795    811.52219    5284.8333   -1.4611655    103.93162    709.05174            0 
  233000       233000    300.94545    1.2320359     52300645 0.00050936324     799.4217    5283.8308   -3.3976965    103.10622    699.71319            0 
  233500       233500    300.10344    1.1337235     52302904 0.00050934124    813.46824    5285.3304  -0.24641522    112.55739    701.15727            0 
  234000       234000    300.50867   0.91736247     52345180 0.00050892987    808.42861    5286.3292  -0.87691095    111.16678    698.13873            0 
  234500       234500      299.874   0.70509914     52393468 0.00050846082    817.91416    5286.3574   -2.2826266    114.54212    705.65467            0 
  235000       235000    298.87861     0.828871     52436667 0.00050804193    832.64063    5286.2515   -2.9473838    108.14139    727.44663            0 
  235500       235500     300.5517   0.67832024     52480304 0.0005076195    807.79185    5286.3336   -2.2475495    107.30558    702.73382            0 
  236000       236000    299.59487   0.91962803     52517587 0.00050725914    824.43537    5288.7194   -1.8616958    108.44999    717.84708            0 
  236500       236500    299.10965   0.57603431     52548731 0.0005069585     832.4108    5289.4644   -1.5286072    108.77106    725.16835            0 
  237000       237000    298.85008   0.54105862     52571483 0.00050673909    835.80341    5288.9893   -3.0504658    104.60456    734.24931            0 
  237500       237500    300.04805      0.41567     52615554 0.00050631465    817.32196    5288.3588  -0.98894823    109.21627    709.09464            0 
  238000       238000    300.20489   0.43553869     52653375 0.00050595096    815.86958    5289.2435   -2.1702209    114.52211    703.51769            0 
  238500       238500     299.9146   0.86555831     52680983 0.00050568582    819.99679    5289.0451   -1.5933092    113.61926    707.97084            0 
[...]
  442000       442000    300.26414   0.94773455     60523254 0.00044016182    898.45437    5372.7112   -1.3142943    141.95169    757.81698            0 
  442500       442500    300.61889    1.1952158     60503663 0.00044030435    893.33176    5372.8747   -1.3821511    139.38526    755.32865            0 
  443000       443000     300.6667    1.2390123     60499950 0.00044033137    891.29474    5371.5502   -1.7648581    138.25768    754.80192            0 
  443500       443500    299.29064    1.2468643     60505783 0.00044028892    912.66815    5372.4187   -1.9752945     140.3068    774.33665            0 
  444000       444000    299.25043    1.4384082     60506989 0.00044028014    913.09443    5372.2459   -2.1664269    136.62191    778.63894            0 
  444500       444500    300.70708    1.3352479     60516049 0.00044021423    891.05735    5371.9144   -1.3049541    139.37308    752.98922            0 
  445000       445000    300.23414    1.0712864     60548545 0.00043997797    898.58155    5372.3913  -0.98265169    137.31703    762.24717            0 
  445500       445500    299.95327    1.3519837     60578054 0.00043976364    903.64477    5373.2692   -1.2367726    142.41622    762.46532            0 
  446000       446000    300.52463    1.1081616     60606552 0.00043955686     893.9654    5372.1038   -2.0859773    141.26382    754.78756            0 
  446500       446500    299.75751    1.2262289     60639915 0.00043931502    906.40241    5373.1099     -1.38824    142.00706    765.78359            0 
  447000       447000    299.80783   0.96526652     60684379 0.00043899314    905.16728    5372.6246   -1.3492932    143.01015    763.50642            0 
  447500       447500    300.14836   0.93022992     60742948 0.00043856986    899.27844      5371.81   -1.8043902    135.78947    765.29336            0 
  448000       448000    298.99047   0.96849575     60769868 0.00043837558    917.17517    5372.4529   -1.8692206    141.10801    777.93638            0 
  448500       448500    300.88181   0.96165976     60774809 0.00043833994    889.23649    5372.6972   -1.6590983    141.97418    748.92141            0 
  449000       449000    300.52794    1.1158989     60749824 0.00043852021    894.02035     5372.208   -1.9171691    138.42987    757.50765            0 
  449500       449500    300.23143   0.89380169     60738911 0.00043859901    899.72153    5373.4909   -1.2144057    145.37628    755.55966            0 
  450000       450000    299.72041   0.62934095     60740431 0.00043858803    906.55878    5372.7134   -1.9608396     144.4634    764.05622            0 
  450500       450500    300.15127   0.72267377     60768156 0.00043838793    899.74897    5372.3239   -2.9746249    141.16696    761.55663            0 
  451000       451000    299.58409   0.96610388     60765533 0.00043840685    909.92271     5374.046   -1.7034841    141.24203    770.38416            0 
  451500       451500    300.28958    1.2864562     60740951 0.00043858428    899.50165    5374.1376   -1.3231721    140.55408    760.27074            0 
  452000       452000    300.80816    1.1142103     60709834 0.00043880907    891.70281    5374.0661   -1.3812083    142.94627    750.13775            0 
  452500       452500    300.72791    1.1751156     60688519 0.00043896319    893.11695    5374.2844   -1.7747405    140.46759    754.42411            0 
  453000       453000    300.37374    1.1069678     60680687 0.00043901984    897.64429    5373.5343   -2.0574208    138.71915    760.98255            0 
  453500       453500    300.50056    1.0714843     60686091 0.00043898075    896.78988    5374.5697   -1.0851306    149.08047    748.79454            0 
  454000       454000    300.46598    1.4260226     60695641 0.00043891169    897.23841    5374.5029    -1.489681    143.37366    755.35442            0 
  454500       454500    299.78838    1.2849344     60706691 0.00043883179    906.56563    5373.7331    -2.350488    142.42475    766.49138            0 
  455000       455000    301.24414    1.1729314     60722486 0.00043871764    884.83272    5373.6926    -1.362203    138.41794    747.77699            0 
  455500       455500     300.2356    1.1219633     60736952 0.00043861315    900.42537    5374.2569    -1.311173    138.71447    763.02208            0 
  456000       456000     299.3869    1.2425994     60751110 0.00043851094    911.90109    5373.0861   -2.9518006    145.49249     769.3604            0 
  456500       456500    300.05784    1.3409548     60831278 0.00043793303    904.62605    5375.8087   -1.4119344    144.82066    761.21732            0 
  457000       457000    300.09988    1.1995382     60917435 0.00043731365    904.37952    5376.1886  -0.97826127    142.38603    762.97175            0 
  457500       457500     300.8151    1.0607733     60985146 0.00043682811    894.27813    5376.7449   -1.0225007    141.29237    754.00827            0 
  458000       458000    299.19265    1.0492104     61031583 0.00043649574    919.08906    5377.3795   -1.1029182    142.94512    777.24686            0 
  458500       458500    299.77921   0.69248251     61081669 0.00043613782    910.29871    5377.3295   -1.1096498    148.08221    763.32614            0 
  459000       459000     298.9397   0.50952128     61127352 0.00043581188    922.17752    5376.6987   -2.0274742    148.10624    776.09876            0 
  459500       459500     299.6815   0.53849563     61181860 0.0004354236    910.86537    5376.4401   -2.9491962    151.20408    762.61049            0 
  460000       460000    299.77993   0.86227687     61240576 0.00043500613    910.84607    5377.8876   -1.7323636    145.33514    767.24329            0 
  460500       460500    300.46317     1.081971     61283849 0.00043469897    899.80434     5377.027   -2.3333927    143.76292    758.37481            0 
  461000       461000    300.71185    1.0352868     61315314 0.0004344759    897.23178    5378.1599   -1.2551225    140.37089    758.11601            0 
  461500       461500    299.70392     1.120192     61311925 0.00043449991    911.60313     5377.512   -2.8667292    141.26024    773.20962            0 
  462000       462000    300.20794    1.2268728     61296334 0.00043461043    904.98053    5378.3999   -1.4956774    139.02296    767.45325            0 
  462500       462500    299.67886    1.2172882     61246987 0.00043496059    913.34205    5378.8776   -1.6360313    137.78428     777.1938            0 
  463000       463000    300.99737   0.87747423     61217163 0.0004351725    893.39719    5378.5799   -2.0704846    146.10146    749.36621            0 
  463500       463500    300.17507    1.2437658     61219473 0.00043515608    906.54044      5379.47   -1.7144385    145.28781    762.96707            0 
  464000       464000    299.99365   0.98384233     61259706 0.00043487029    909.39066    5379.6168   -1.1712852    150.35448    760.20747            0 
  464500       464500    299.00353    1.0493841     61320079 0.00043444213    923.49169     5378.964  -0.55150217     141.5266    782.51659            0 
  465000       465000    299.82675   0.98987673     61387741 0.00043396329     911.6519    5379.3911    -1.239439    150.26764     762.6237            0 
  465500       465500    298.94944   0.97058256     61436374 0.00043361976    925.63428    5380.3006   -1.4366098    147.44578    779.62511            0 
  466000       466000    299.77951   0.89131593     61492591 0.00043322334    911.49025    5378.5255   -1.9368193    144.07827     769.3488            0 
  466500       466500    300.28166   0.87081482     61526671 0.00043298338    906.95303     5381.471  -0.82709367    144.82295    762.95717            0 
  467000       467000    301.07342    0.8498801     61542086 0.00043287493    894.85954    5381.1755    -1.236762    144.94327    751.15303            0 
  467500       467500    299.13782    1.1575117     61545499 0.00043285092    924.72398    5382.1974   -1.3350065    143.46918     782.5898            0 
  468000       468000    301.75148    1.1563164     61536986 0.0004329108    884.52487    5380.9446   -2.1650326    140.46891    746.22099            0 
  468500       468500    299.68411   0.85854869     61530319 0.00043295771    915.70952    5381.3232   -1.6274852    145.67508    771.66192            0 
  469000       469000    299.46903    0.8291379     61516994 0.00043305149    919.35573    5381.7645    -2.036002    147.33072      774.061            0 
  469500       469500    301.49442   0.92018558     61523434 0.00043300616    889.14351    5381.7328   -0.8607537    149.05272    740.95155            0 
  470000       470000    299.05138     1.047352     61549611  0.000432822    926.25579    5382.4412   -1.1993777    144.51406    782.94111            0 
  470500       470500    300.28679    1.0295687     61577657 0.00043262487    907.51632    5382.1106   -0.9570499    145.09813    763.37524            0 
  471000       471000    300.00975    1.2116573     61599472 0.00043247166    911.37309    5381.8392   -1.3180206    145.91375    766.77736            0 
  471500       471500    300.00903    1.3578807     61608618 0.00043240746    911.25441    5381.7098   -2.1890427    146.74852    766.69494            0 
  472000       472000    299.62933     1.096394     61615882 0.00043235648    917.32905    5382.1265    -1.393014    146.89682    771.82525            0 
  472500       472500    299.94792   0.86990479     61647260 0.00043213641    912.41488    5381.9596   -1.2941787    143.44021    770.26884            0 
  473000       473000    299.83017    1.0048064     61698790 0.0004317755    914.43699    5382.2271  -0.84742938    147.50735    767.77707            0 
  473500       473500    299.03066    0.7856016     61736289 0.00043151324     926.1794    5382.0561   -0.8958612    154.54841    772.52685            0 
  474000       474000    300.25671   0.55307682     61772890 0.00043125756    908.74393    5382.8901  -0.88440837    150.00213    759.62621            0 
  474500       474500    300.51737   0.64657454     61786167 0.00043116489    903.35633    5381.3865   -1.2869822    145.01937    759.62394            0 
  475000       475000    300.20767   0.78869543     61776622 0.00043123151    908.53627    5381.9517  -0.98118571    139.34552    770.17194            0 
  475500       475500    299.29981   0.70857089     61762065 0.00043133315    923.28575    5383.1731   -1.5915491    148.54497    776.33233            0 
  476000       476000    299.77609   0.91806493     61743847 0.00043146042    916.46243    5383.4467   -1.0694948    151.18893      766.343            0 
  476500       476500    301.28795   0.86065057     61703383 0.00043174336    892.87183    5382.3844  -0.88788085     145.9136    747.84611            0 
  477000       477000    299.43131    1.1142032     61687993 0.00043185107    921.75527    5383.6021   -1.2379665    143.55344     779.4398            0 
  477500       477500     299.6937   0.87656197     61688422 0.00043184807    919.62868    5385.3853  -0.97513897    155.17359    765.43023            0 
  478000       478000    299.69192   0.72863948     61705281 0.00043173008    919.40781    5385.1379      -1.9137    149.12967    772.19184            0 
  478500       478500    300.30844   0.89705287     61720834 0.00043162129    909.30603     5384.223   -2.3512439    152.35715    759.30012            0 
  479000       479000    300.16737   0.96973207     61698167 0.00043177986    911.91557    5384.7304    0.5309599     145.5848    765.79981            0 
  479500       479500    300.10606    1.1659596     61676382 0.00043193237    912.07442    5383.9756  -0.88763078    142.08892    770.87313            0 
  480000       480000    298.96571    1.2346228     61676855 0.00043192906    929.62562    5384.5344   -2.1231416    147.02565     784.7231            0 
  480500       480500    299.33604    1.4090814     61668387 0.00043198837    925.80232    5386.2294    -1.352975    149.67381    777.48148            0 
  481000       481000    300.37008    1.1458012     61667861 0.00043199205    909.07477    5384.9103    -1.277709    144.88767    765.46481            0 
  481500       481500    301.06793    1.1649873     61663113 0.00043202532    898.19557    5384.4297    -2.067823     149.3205     750.9429            0 
  482000       482000    299.52261    1.1693225     61675139 0.00043194107    923.18396    5386.3911  -0.81652321    151.11801    772.88248            0 
  482500       482500    300.13762    1.2795234     61690162 0.00043183589    914.10372    5386.4753   -1.1193321    150.83589    764.38717            0 
  483000       483000    300.13495    1.0861354     61718976 0.00043163428    913.72142    5386.0532   -1.0850757    149.09991    765.70659            0 
  483500       483500    299.55502    1.1739138     61752980 0.0004313966    922.33275     5386.023   -1.2566834    146.72699    776.86244            0 
  484000       484000    298.74993   0.98407097     61797292 0.00043108727    935.54307    5387.2366   -1.3025411    150.58369    786.26192            0 
  484500       484500    298.83721    0.7307924     61833494 0.00043083488    933.58309    5386.5771   -1.7386704    152.68982    782.63194            0 
  485000       485000    300.37775   0.79550992     61860391 0.00043064755    911.21299    5387.1626   -1.2664098    146.91072    765.56868            0 
  485500       485500    300.20779   0.95954487     61854349 0.00043068962    913.65107    5387.0682   -1.4385373    145.95278    769.13683            0 
  486000       486000    300.26692    1.1886528     61828096 0.00043087249    912.93821    5387.2365   -1.5082193    144.64201    769.80441            0 
  486500       486500    299.32724   0.85625811     61796932 0.00043108978     926.3199    5386.6158   -1.9342032    147.88388    780.37022            0 
  487000       487000    300.10403   0.68340514     61764409 0.00043131678    914.98559    5386.8566  -0.84464144    152.52697    763.30326            0 
  487500       487500     299.8964   0.63365445     61744614 0.00043145506    917.21244    5385.9896   -2.8263829    151.04735    768.99147            0 
  488000       488000    299.74106   0.53527726     61741837 0.00043147446    920.83587    5387.2982   -1.4942736    149.91265    772.41749            0 
  488500       488500    299.63143   0.58723827     61723680 0.00043160139    921.76482    5386.5935  -0.65273403    150.93616    771.48139            0 
  489000       489000    300.24616   0.96275983     61727510 0.00043157461    914.12353    5388.1125   -1.5153291    147.48587    768.15299            0 
  489500       489500    300.00871    1.3847286     61743850 0.00043146039    916.85688    5387.3075   -2.1567804    149.19472    769.81894            0 
  490000       490000    301.07506    1.3182056     61757864 0.00043136249    900.90303    5387.2434   -2.0874297    146.35081    756.63965            0 
  490500       490500    300.47519   0.93929168     61778436 0.00043121884    909.52688    5386.9285   -2.2980023    146.08255    765.74232            0 
  491000       491000    299.42908    1.1613972     61799963 0.00043106864    925.66055     5387.474   -1.8696321    145.97527    781.55491            0 
  491500       491500     300.3947   0.92860668     61857672 0.00043066648    912.09929    5388.3016   -2.0213001    150.98832    763.13227            0 
  492000       492000    300.38062   0.99819916     61913829 0.00043027585    912.96703    5388.9595   -1.7044974     149.9648    764.70673            0 
  492500       492500    300.37232     0.980898     61963490 0.00042993101    912.26659    5388.1353   -2.1978082    147.62365    766.84075            0 
  493000       493000    300.47193    0.7956403     62009029 0.00042961528    910.75177    5388.1049     -1.48787     144.6582    767.58144            0 
  493500       493500    300.83508   0.78764897     62028741 0.00042947875    906.01621    5388.7806   -1.9530116     147.4914    760.47782            0 
  494000       494000    299.80732   0.78877444     62029191 0.00042947563    921.04365    5388.4934   -2.8267863    149.76784     774.1026            0 
  494500       494500    299.18347   0.75381076     62008836 0.00042961661    930.98748    5389.1411   -2.4159888    144.28192    789.12155            0 
  495000       495000    299.71076   0.85774687     61992256 0.00042973151      922.925    5388.9359   -2.7735881     152.7669    772.93168            0 
  495500       495500    300.02787    1.1335686     62003602 0.00042965288    918.12533    5388.8615   -3.2784634    150.96375    770.44004            0 
  496000       496000    300.70736    1.1106594     62050595 0.00042932748     906.2916    5387.1529    -3.247544    145.34901    764.19013            0 
  496500       496500    300.96343    1.2474449     62095699 0.00042901564    903.97978    5388.6568   -2.1636061    146.43517    759.70822            0 
  497000       497000    300.38727    1.0077429     62135959 0.00042873766    913.44112    5389.5327   -2.8701724     151.9312    764.38009            0 
  497500       497500    300.37565    1.1612568     62191314 0.00042835605    913.56999    5389.4884   -1.9416166    145.18061      770.331            0 
  498000       498000    299.51732    1.1485206     62237259 0.00042803983    927.96926    5391.0977   -1.4832937     148.5036    780.94895            0 
  498500       498500    301.84049   0.82201909     62276404 0.00042777078    892.78689     5390.533   -2.0013049    149.70933    745.07887            0 
  499000       499000      299.671   0.95981516     62304906 0.00042757509    926.29511    5391.7135  -0.45978673    151.12517    775.62972            0 
  499500       499500    302.28568   0.92735549     62298530 0.00042761885    886.76232    5391.1422   -1.8210886    150.83555    737.74786            0 
  500000       500000    299.74766     1.026304     62279414 0.00042775011    925.00234    5391.5631   -1.5015152    148.96089    777.54297            0 
  500002       500002    299.39097    1.3686218     62279218 0.00042775145    931.05231    5392.2979   -1.4155307    157.47103    774.99681            0 
Loop time of 6777.22 on 1 procs for 500000 steps with 5000 atoms

Performance: 6.374 ns/day, 3.765 hours/ns, 73.777 timesteps/s
100.0% CPU use with 1 MPI tasks x no OpenMP threads

MPI task timing breakdown:
Section |  min time  |  avg time  |  max time  |%varavg| %total
---------------------------------------------------------------
Pair    | 139.76     | 139.76     | 139.76     |   0.0 |  2.06
Bond    | 175.84     | 175.84     | 175.84     |   0.0 |  2.59
Kspace  | 827.65     | 827.65     | 827.65     |   0.0 | 12.21
Neigh   | 39.999     | 39.999     | 39.999     |   0.0 |  0.59
Comm    | 5.2587     | 5.2587     | 5.2587     |   0.0 |  0.08
Output  | 1.3836     | 1.3836     | 1.3836     |   0.0 |  0.02
Modify  | 5582.5     | 5582.5     | 5582.5     |   0.0 | 82.37
Other   |            | 4.782      |            |       |  0.07

Nlocal:           5000 ave        5000 max        5000 min
Histogram: 1 0 0 0 0 0 0 0 0 0
Nghost:            981 ave         981 max         981 min
Histogram: 1 0 0 0 0 0 0 0 0 0
Neighs:          11503 ave       11503 max       11503 min
Histogram: 1 0 0 0 0 0 0 0 0 0

Total # of neighbors = 11503
Ave neighs/atom = 2.3006
Ave special neighs/atom = 4
Neighbor list builds = 36976
Dangerous builds = 0

write_data   system_after_npt.data
System init for write_data ...
PPPM initialization ...
  using 12-bit tables for long-range coulomb (../kspace.cpp:340)
  G vector (1/distance) = 0.1594581
  grid = 72 72 72
  stencil order = 5
  estimated absolute RMS force accuracy = 0.0016855553
  estimated relative force accuracy = 5.0759997e-06
  using double precision KISS FFT
  3d grid and FFT values/proc = 456533 373248
  generated 1 of 1 mixed pair_coeff terms from geometric mixing rule
Total wall time: 1:52:57
