LAMMPS (29 Sep 2021)

# ------------------------------- Initialization Section --------------------

include      "system.in.init"        # specify the style of force field used
  atom_style full
  units real
  bond_style harmonic
  angle_style harmonic
  dihedral_style opls
  improper_style harmonic
  pair_style lj/cut/coul/long 11.0 11.0
  pair_modify mix geometric
  special_bonds lj/coul 0.0 0.0 0.5
  kspace_style pppm 0.0001

# ------------------------------- Atom Definition Section -------------------

read_data    "system.data"
Reading data file ...
  orthogonal box = (0.0000000 0.0000000 0.0000000) to (103.50000 103.50000 103.50000)
  2 by 2 by 2 MPI processor grid
  reading atoms ...
  5000 atoms
  scanning bonds ...
  4 = max bonds/atom
  scanning angles ...
  6 = max angles/atom
  reading bonds ...
  4000 bonds
  reading angles ...
  6000 angles
Finding 1-2 1-3 1-4 neighbors ...
  special bond factors lj:    0        0        0.5     
  special bond factors coul:  0        0        0.5     
     4 = max # of 1-2 neighbors
     3 = max # of 1-3 neighbors
     3 = max # of 1-4 neighbors
     4 = max # of special neighbors
  special bonds CPU = 0.011 seconds
  read_data CPU = 0.075 seconds

# ------------------------------- Settings Section --------------------------

include      "system.in.settings"    # load the force field parameters
  pair_coeff 1 1 0.066 3.5
  pair_coeff 2 2 0.03 2.5
  bond_coeff 1 340.0 1.09
  angle_coeff 1 33.0 107.8
  set type 1 charge -0.24
Setting atom values ...
  1000 settings made for charge
  set type 2 charge 0.06
Setting atom values ...
  4000 settings made for charge
include      "system.in.charges"     # load the charge of each atom
  set type 1 charge -0.24
Setting atom values ...
  1000 settings made for charge
  set type 2 charge 0.06
Setting atom values ...
  4000 settings made for charge

# ------------------------------- Run Section -------------------------------


# -- minimization protocol --

thermo          500
minimize	1.0e-4 1.0e-6 100000 400000
WARNING: Using 'neigh_modify every 1 delay 0 check yes' setting during minimization (../min.cpp:188)
PPPM initialization ...
  using 12-bit tables for long-range coulomb (../kspace.cpp:340)
  G vector (1/distance) = 0.13982374
  grid = 15 15 15
  stencil order = 5
  estimated absolute RMS force accuracy = 0.025711481
  estimated relative force accuracy = 7.7429363e-05
  using double precision KISS FFT
  3d grid and FFT values/proc = 2197 512
Neighbor list info ...
  update every 1 steps, delay 0 steps, check yes
  max neighbors/atom: 2000, page size: 100000
  master list distance cutoff = 13
  ghost atom cutoff = 13
  binsize = 6.5, bins = 16 16 16
  1 neighbor lists, perpetual/occasional/extra = 1 0 0
  (1) pair lj/cut/coul/long, perpetual
      attributes: half, newton on
      pair build: half/bin/newton
      stencil: half/bin/3d
      bin: standard
Per MPI rank memory allocation (min/avg/max) = 9.951 | 9.952 | 9.957 Mbytes
Step Temp E_pair E_mol TotEng Press 
       0            0    13.473059    169.81587    183.28893    62.917711 
       2            0     13.46648    168.45644    181.92292    1.7188027 
Loop time of 0.00572452 on 8 procs for 2 steps with 5000 atoms

97.5% CPU use with 8 MPI tasks x no OpenMP threads

Minimization stats:
  Stopping criterion = energy tolerance
  Energy initial, next-to-last, final = 
      183.288930482805   181.923003048985   181.922915101875
  Force two-norm initial, final = 43.104107 0.12623321
  Force max component initial, final = 0.68269501 0.0017082284
  Final line search alpha, max atom move = 1.0000000 0.0017082284
  Iterations, force evaluations = 2 4

MPI task timing breakdown:
Section |  min time  |  avg time  |  max time  |%varavg| %total
---------------------------------------------------------------
Pair    | 0.0019045  | 0.0019372  | 0.0019945  |   0.1 | 33.84
Bond    | 0.00038566 | 0.00039002 | 0.0003961  |   0.0 |  6.81
Kspace  | 0.0028693  | 0.0029312  | 0.002962   |   0.1 | 51.20
Neigh   | 0          | 0          | 0          |   0.0 |  0.00
Comm    | 0.00026808 | 0.00028491 | 0.00030123 |   0.0 |  4.98
Output  | 0          | 0          | 0          |   0.0 |  0.00
Modify  | 0          | 0          | 0          |   0.0 |  0.00
Other   |            | 0.0001812  |            |       |  3.17

Nlocal:        625.000 ave         625 max         625 min
Histogram: 8 0 0 0 0 0 0 0 0 0
Nghost:        1935.00 ave        1935 max        1935 min
Histogram: 8 0 0 0 0 0 0 0 0 0
Neighs:        11250.0 ave       11625 max       10875 min
Histogram: 2 0 2 0 0 0 0 1 1 2

Total # of neighbors = 90000
Ave neighs/atom = 18.000000
Ave special neighs/atom = 4.0000000
Neighbor list builds = 0
Dangerous builds = 0

# Optional: write the coordinates after minimization
write_data  	system_after_min.data
System init for write_data ...
PPPM initialization ...
  using 12-bit tables for long-range coulomb (../kspace.cpp:340)
  G vector (1/distance) = 0.13982374
  grid = 15 15 15
  stencil order = 5
  estimated absolute RMS force accuracy = 0.025711481
  estimated relative force accuracy = 7.7429363e-05
  using double precision KISS FFT
  3d grid and FFT values/proc = 2197 512


# -- simulation protocol --


timestep        1.0
dump            1 all custom 2500 traj_npt.lammpstrj id mol type x y z ix iy iz
thermo_style    custom step time temp press vol density pe etotal epair ebond eangle edihed
fix             fxnpt all npt temp 50.0 50.0 50.0 iso 1.0 1.0 1000.0 drag 1.0


# ----------------------------- Customization -------------------------------
variable	d equal density
variable 	pe equal epair

fix extra all print 100 "${d} ${pe}" file out.txt screen no

run             1000000
PPPM initialization ...
  using 12-bit tables for long-range coulomb (../kspace.cpp:340)
  G vector (1/distance) = 0.13982374
  grid = 15 15 15
  stencil order = 5
  estimated absolute RMS force accuracy = 0.025711481
  estimated relative force accuracy = 7.7429363e-05
  using double precision KISS FFT
  3d grid and FFT values/proc = 2197 512
Per MPI rank memory allocation (min/avg/max) = 8.866 | 8.867 | 8.872 Mbytes
Step Time Temp Press Volume Density PotEng TotEng E_pair E_bond E_angle E_dihed 
       2            0            0    1.7188027    1108717.9  0.024027777    181.92292    181.92292     13.46648 1.4398946e-05    168.45642            0 
     500          498 0.0020218016    1.5612987    1114904.6  0.023894444    181.76638    181.79651    13.309555 3.3957982e-05    168.45679            0 
    1000          998   0.02010391    1.4335177    1129412.4  0.023587509    181.40456    181.70413    12.947567 4.9703876e-05    168.45694            0 
    1500         1498   0.16433322    3.6733167    1146734.1  0.023231214    200.55368    203.00242    32.095411 0.00020928611    168.45806            0 
    2000         1998    1.7280672    5.3521736    1194279.8  0.022306352    215.34351    241.09356    46.884182 0.0014151204    168.45791            0 
    2500         2498    12.848186    6.0418762    1255025.9  0.021226675    223.56656    415.01828    55.018276   0.03661491    168.51167            0 
    3000         2998    44.822661    6.4950252    1319083.2  0.020195865    229.31791    897.22349    60.098918   0.36714534    168.85185            0 
    3500         3498    50.019888    3.3845592    1325778.6  0.020093873    201.32083    946.67065    31.865823   0.43787009    169.01713            0 
    4000         3998    49.996476   -3.9676873    1332871.5  0.019986943    133.87587    878.87683   -35.607077   0.42540682    169.05754            0 
    4500         4498    49.987134    3.5244362    1329604.6  0.020036051    199.47319    944.33494    30.082121   0.43907342    168.95199            0 
    5000         4998    49.995255    5.7628589    1330389.3  0.020024233    218.36455    963.34731    48.979557   0.44085891    168.94413            0 
    5500         5498    49.982313   -1.7065062      1331402  0.020009002    150.57499    895.36491   -18.861853   0.44083885      168.996            0 
    6000         5998    50.017449    3.4722681    1330639.1  0.020020475    197.48156    942.79504    27.963781   0.43120829    169.08657            0 
    6500         6498    49.976869   -3.2908526    1331081.8  0.020013816    135.61927    880.32807   -33.796967   0.42912173    168.98711            0 
    7000         6998    50.024505   -2.8656987    1331198.8  0.020012057      137.125    882.54363   -32.210617   0.41087293    168.92474            0 
    7500         7498    50.020047     4.141881    1330746.6  0.020018857    199.82149    945.17368    30.413091   0.42030814    168.98809            0 
    8000         7998    50.015505     3.259046    1330991.6  0.020015172    191.65179     936.9363    22.155615   0.41574196    169.08043            0 
    8500         8498    49.993466   -3.1970768    1331065.8  0.020014056    132.90184    877.85795   -36.527593    0.4364059    168.99303            0 
    9000         8998    49.970172    4.2282079    1330842.2  0.020017418    199.09216    943.70116    29.749428   0.42124406    168.92149            0 
    9500         9498    50.008324   -2.7694486      1331032  0.020014564    135.60634    880.78386   -33.798555   0.42062751    168.98427            0 
   10000         9998    49.961337    6.8484065    1330726.5   0.02001916    222.24088    966.71823    52.789828   0.39467971    169.05637            0 
   10500        10498    50.013604   -2.7631083    1331165.3  0.020012561    135.79476    881.05095   -33.647357   0.41756859    169.02455            0 
   11000        10998    50.005297    5.0314724    1330701.3  0.020019538    206.24785    951.38026    36.913164   0.41788889     168.9168            0 
   11500        11498      50.0332   -2.5321871    1331083.2  0.020013795     137.3128    882.86099   -32.066727   0.43005446    168.94948            0 
   12000        11998    50.015726   -1.5264267    1331024.4  0.020014679    146.44719    891.73499   -23.026671   0.41337197    169.06049            0 
   12500        12498    50.015187    1.6803193    1330971.9  0.020015469    175.27795    920.55772    5.8419104   0.41786415    169.01818            0 
   13000        12998    50.014058    1.4219924    1330969.9  0.020015499    172.08469    917.34764    2.7701934   0.40366746    168.91082            0 
   13500        13498    49.980239    2.1171237    1330894.7   0.02001663    177.69444    922.45345    8.3586046   0.40953495    168.92631            0 
   14000        13998    50.004885    1.2972024      1330933  0.020016053    170.05312    915.17938   0.61450601   0.40680261    169.03181            0 
   14500        14498    49.952527     3.369431    1330809.4  0.020017912    188.30452    932.65059     18.86544   0.41712632    169.02196            0 
   15000        14998    50.005878    1.6283016    1330954.4  0.020015731    171.62507    916.76613    2.2713061   0.41937527    168.93439            0 
   15500        15498    50.006238    2.7374936    1330846.8  0.020017349    181.55194    926.69836    12.217145     0.407742    168.92705            0 
   16000        15998    50.031043    1.5318726    1330903.7  0.020016494    170.51418    916.03023    1.0970433   0.39821945    169.01892            0 
   16500        16498    50.028672     1.829294    1330897.1  0.020016593    173.19213    918.67284    3.7700073   0.39619131    169.02593            0 
   17000        16998    50.014415    1.9284383    1330855.4   0.02001722    173.58536    918.85363     4.222031   0.41338191    168.94995            0 
   17500        17498    50.005969    2.3390996    1330896.2  0.020016606    177.00448     922.1469    7.6424315    0.4115115    168.95054            0 
   18000        17998    49.969922      3.59987    1330815.6  0.020017819    189.16744    933.77271    19.728731   0.41485852    169.02385            0 
   18500        18498    50.025674    1.7647601    1330879.9  0.020016851    172.69227    918.12832    3.2352013   0.40110258    169.05597            0 
   19000        18998    49.994372    3.5999417    1330783.1  0.020018307    189.74289    934.71249    20.351647   0.41369386    168.97755            0 
   19500        19498    50.015357    1.7547715    1330842.7  0.020017411    173.02848    918.31079    3.6613429   0.39711425    168.97002            0 
   20000        19998    50.012901    2.2706352    1330743.1  0.020018909    178.05553    923.30124    8.6066619   0.41366064     169.0352            0 
   20500        20498    50.027798     1.657413    1330753.6  0.020018752    172.41398    917.88167    2.9296983   0.40952836    169.07475            0 
   21000        20998    50.023628    1.8242486    1330713.9  0.020019349    174.27914    919.68469     4.832214   0.42733991    169.01959            0 
   21500        21498    49.999831    2.1324573    1330629.3  0.020020622    177.19301    922.24396    7.7892421   0.41056963     168.9932            0 
   22000        21998    50.014859    1.4566286    1330591.6  0.020021189    171.50737    916.78226    2.0429058   0.41104435    169.05342            0 
   22500        22498    49.958238    4.3564011    1330371.1  0.020024508    198.13051    942.56168    28.629749   0.39663157    169.10413            0 
   23000        22998    50.020634    1.5627947    1330290.2  0.020025725    173.28691    918.64784    3.8034766   0.42294289    169.06049            0 
   23500        23498    49.990194    2.2729804    1330043.2  0.020029444    180.05354    924.96089     10.62252   0.42101384    169.01001            0 
   24000        23998    50.016237    1.1919045    1329867.1  0.020032097    170.95034    916.24575    1.4557823   0.42682255    169.06774            0 
   24500        24498    50.011069     1.652466    1329548.5  0.020036896    175.56638    920.78479    6.0014151   0.41714039    169.14783            0 
   25000        24998     50.01761     1.521572    1329108.7  0.020043527    174.98291    920.29879    5.4626921   0.41999301    169.10022            0 
   25500        25498    50.014505    1.6109481      1328757  0.020048832    176.04943    921.31904    6.5761441   0.41766532    169.05562            0 
   26000        25998    49.983714    2.1175549    1328152.8  0.020057952    181.58681     926.3976    12.086301   0.42262783    169.07788            0 
   26500        26498    50.013342    1.3646805    1327577.1   0.02006665    175.42425    920.67654    5.8134365   0.42992517    169.18089            0 
   27000        26998    49.955602    2.7333207    1326536.1  0.020082399    188.61185    933.00374    19.020989   0.43558986    169.15527            0 
   27500        27498    50.012525   0.76999292      1325538  0.020097519    171.17922    916.41933    1.6421943   0.44248497    169.09454            0 
   28000        27998     49.99703    1.1506058      1324228  0.020117402    175.54156    920.55077    6.0198391   0.42591698     169.0958            0 
   28500        28498    50.011003    1.2147515    1323008.3  0.020135948    176.86542    922.08284     7.200168   0.42983474    169.23542            0 
   29000        28998    50.015412    1.0801048    1321498.3  0.020158955    176.38835    921.67148    6.7225728   0.43079074    169.23499            0 
   29500        29498    50.009134   0.59096353    1320454.8  0.020174887    172.65835    917.84793    3.0581401   0.45365252    169.14656            0 
   30000        29998    50.005648   0.66766358    1319166.1  0.020194595    174.28175    919.41938    4.6907518   0.44567442    169.14532            0 
   30500        30498    49.956306    1.7330652    1318807.7  0.020200084    184.64625    929.04864    14.928809   0.45262685    169.26482            0 
   31000        30998    50.009345   0.82579582    1319175.7  0.020194448    177.32958    922.52231    7.6023749   0.43787835    169.28933            0 
   31500        31498    49.972848    1.2830513    1319635.4  0.020187414    181.98076    926.62964    12.319589   0.45457829    169.20659            0 
   32000        31998    50.013944    0.1733802    1320362.2  0.020176302     172.7546    918.01585    3.1128242   0.44082691    169.20095            0 
   32500        32498    49.993052   0.47286284    1320761.7  0.020170198     176.2559    921.20584    6.5030398   0.45805833     169.2948            0 
   33000        32998    50.003859   0.47284603    1321009.9  0.020166409    176.96383     922.0748    7.1859819   0.45733084    169.32052            0 
   33500        33498    50.007349   0.36847075    1321501.6  0.020158905    176.49524    921.65823    6.7584937   0.47222951    169.26452            0 
   34000        33998    49.997865   0.30625903    1321176.8  0.020163861    176.66153    921.68319     6.977322   0.45525383    169.22896            0 
   34500        34498    49.992416  0.087343004      1321249   0.02016276    175.15111    920.09156    5.3909531    0.4563991    169.30375            0 
   35000        34998    49.981984   0.48556468    1320982.1  0.020166833     179.3038    924.08882    9.5197473   0.45052732    169.33353            0 
   35500        35498    49.995701   0.43020695    1320820.7  0.020169297      179.314    924.30341    9.5277985   0.47298093    169.31322            0 
   36000        35998    49.998143   0.54953968    1321129.8  0.020164578    180.94532    925.97112    11.226536   0.47389411    169.24489            0 
   36500        36498    49.992596   -0.1030724    1320776.8  0.020169968    175.45869    920.40184    5.6796724   0.46875013    169.31027            0 
   37000        36998    49.994893  -0.12999986    1320279.2   0.02017757    175.64609    920.62346    5.8259583   0.46615874    169.35397            0 
   37500        37498    50.005021   0.17105271    1320022.3  0.020181496    178.51244    923.64073    8.7273223   0.46458226    169.32054            0 
   38000        37998    49.990662  0.025842622    1320153.5  0.020179491    177.53436    922.44869    7.7786924   0.46545865    169.29021            0 
   38500        38498    50.015619   0.43665804    1319717.7  0.020186156    181.51234    926.79856     11.72621   0.46547383    169.32066            0 
   39000        38998     49.97103  -0.23948716    1319563.2  0.020188518    175.68836    920.31015    5.8611223   0.47583413     169.3514            0 
   39500        39498    50.015351  -0.19226253    1319433.5  0.020190503    176.17809    921.46031    6.3691957   0.47279089    169.33611            0 
   40000        39998    49.970999  0.086312019      1318725   0.02020135    178.81012    923.43145     9.013796   0.47739273    169.31894            0 
   40500        40498    50.011156   0.32422766    1318439.4  0.020205727    181.03598    926.25569    11.234987   0.45621292    169.34478            0 
   41000        40998    49.998375  -0.33022853    1317738.2  0.020216478    175.11135    920.14061    5.2886154   0.46503937     169.3577            0 
   41500        41498    49.983996  -0.21152824    1316824.5  0.020230505     176.1175    920.93249    6.3096392   0.46202151    169.34584            0 
   42000        41998    50.038681  -0.35473977      1315980  0.020243488    174.67967    920.30954    4.8772201   0.47904263    169.32341            0 
   42500        42498    49.943416  -0.25442626    1315236.3  0.020254935    175.53016    919.74047    5.7256191   0.46371222    169.34083            0 
   43000        42998    50.051871    0.1991401    1313518.3  0.020281428    179.34534    925.17175    9.4974301   0.46852058    169.37939            0 
   43500        43498    49.949435   0.33867875    1311784.9  0.020308228    180.32692    924.62692    10.495129   0.45166963    169.38012            0 
   44000        43998     50.03153  0.055101374    1310166.7   0.02033331    177.49347    923.01678     7.682663   0.46526473    169.34555            0 
   44500        44498    49.983738   0.26021364    1308147.1  0.020364703    179.05845    923.86961    9.2525035   0.45463363    169.35132            0 
   45000        44998    49.977873   0.22395924    1306245.8  0.020394343    178.41089    923.13464    8.5687441   0.45932413    169.38282            0 
   45500        45498    50.038417 -0.061935999    1303918.4  0.020430746    175.45174    921.07767    5.6119752   0.46026152     169.3795            0 
   46000        45998    49.945818   0.42891589    1301183.3  0.020473692    179.37915    923.62525    9.5489518   0.45698051    169.37321            0 
   46500        46498    50.071056 -0.094839378    1298795.8  0.020511327    174.21362     920.3259     4.403953   0.44848687    169.36118            0 
   47000        46998    49.927509   0.25039509    1295023.2  0.020571081    176.86422     920.8375    7.0139106    0.4429371    169.40737            0 
   47500        47498    50.045867   0.25517892    1291680.9  0.020624309    176.43945    922.17638    6.5796683   0.44883398    169.41094            0 
   48000        47998    49.975584   0.27024108    1287550.1  0.020690477    175.83444    920.52408    5.9987781   0.44861735    169.38705            0 
   48500        48498    50.005446   0.57773265    1283321.7  0.020758651    177.99375    923.12838     8.187821   0.44869087    169.35724            0 
   49000        48998    50.020948   0.44430153    1278877.5  0.020830787    176.03705    921.40268    6.2048806    0.4351563    169.39702            0 
   49500        49498    49.948205   0.33717745    1273849.3  0.020913012    174.58641    918.86808    4.7249851   0.43826548    169.42316            0 
   50000        49998    50.060548   0.35697469    1268136.8  0.021007218    173.91329    919.86899    4.0575626   0.43321809    169.42251            0 
   50500        50498    49.950233   0.67150376    1262557.2  0.021100054    176.07632    920.38821    6.2696179   0.43374653    169.37296            0 
   51000        50998    50.049327   0.54364788    1256577.9  0.021200457    174.07276    919.86125     4.228699   0.43076467    169.41329            0 
   51500        51498    49.955621   0.76268842    1250329.3  0.021306409    175.47105    919.86322    5.6145053   0.43241195    169.42413            0 
   52000        51998    50.017142   0.99394395      1243955  0.021415587    176.52464    921.83355    6.6716442   0.42376582    169.42923            0 
   52500        52498    50.012368    1.0111416    1236487.1  0.021544929    176.07348    921.31125    6.2568975   0.42465827    169.39192            0 
   53000        52998    49.985115    1.2456232    1229707.7  0.021663705    177.25823     922.0899    7.4245481   0.41674056    169.41694            0 
   53500        53498    50.025133      1.21728    1222230.3  0.021796241    176.35803      921.786     6.465748   0.42175001    169.47053            0 
   54000        53998    49.969402    1.1819228    1214423.1  0.021936363    175.45204    920.04957    5.5777788   0.41920416    169.45506            0 
   54500        54498    50.032846   0.82021245    1206798.4   0.02207496    171.71925    917.26217    1.8741809   0.41742328    169.42765            0 
   55000        54998    49.984262     1.442889    1198461.1  0.022228528     176.1212    920.94016    6.2766008   0.41225763    169.43235            0 
   55500        55498    50.019753    1.2773978    1190811.5  0.022371321    174.13864    919.48644    4.2648202    0.4097534    169.46406            0 
   56000        55998    49.993427    1.2601639    1183203.9   0.02251516     173.5887    918.54423    3.7042861   0.40917437    169.47524            0 
   56500        56498    49.996236    1.7151915    1175404.4  0.022664563    176.68164    921.67902    6.8219419   0.41050597     169.4492            0 
   57000        56998     50.01851    1.6569979    1168315.5  0.022802082      175.634     920.9633    5.7494359   0.41070497    169.47386            0 
   57500        57498    49.985556    1.8557833    1161075.2  0.022944273    176.73091    921.56915    6.8429828   0.40414682    169.48378            0 
   58000        57998    50.009392    1.5685309    1154359.4  0.023077758    174.02457      919.218    4.1345113   0.40758302    169.48247            0 
   58500        58498    50.000759    1.8460102    1147965.2  0.023206301    175.76951    920.83429    5.9089994   0.40162087    169.45889            0 
   59000        58998    50.004535    2.0160993    1141236.9  0.023343116    176.65116    921.77221    6.7946225   0.40202479    169.45451            0 
   59500        59498    50.011159    1.8766323    1134272.8  0.023486437    175.19285     920.4126    5.2950717   0.40203636    169.49574            0 
   60000        59998     49.99444    1.5469662    1128000.9  0.023617025    172.41263    917.38326    2.5134654   0.40377833    169.49539            0 
   60500        60498    50.005327    1.6830199    1120274.9    0.0237799    173.23264     918.3655     3.350685   0.40127588    169.48068            0 
   61000        60998    50.008834    1.9938913    1112132.1  0.023954012    175.22791    920.41301    5.3486584   0.40028199    169.47897            0 
   61500        61498    50.006184     1.848567    1104595.8  0.024117442    172.48354    917.62916     2.594314   0.39600103    169.49322            0 
   62000        61998    50.013412    1.6723012    1095457.5   0.02431863    171.21326    916.46659    1.3141553   0.40017745    169.49893            0 
   62500        62498    50.009436    2.0316827    1086230.2  0.024525212    171.69239    916.88646     1.803786   0.40047735    169.48812            0 
   63000        62998    50.024912    1.7428157    1075292.8  0.024774671    170.63331      916.058   0.73730451   0.39839892    169.49761            0 
   63500        63498    49.947221    1.7199456    1063802.6  0.025042264    164.92068    909.18769   -5.0890357   0.42843103    169.58128            0 
   64000        63998    50.010886    1.0265642    1048871.6  0.025398748    160.59662    905.81231   -9.3280013   0.39359832    169.53102            0 
   64500        64498    50.080719    1.1770593    1032833.9  0.025793136    156.67848    902.93475   -13.241654   0.39097878    169.52915            0 
   65000        64998    49.944678    1.2370766    1018584.7  0.026153963    155.96311    900.19221   -14.048586   0.40784145    169.60385            0 
   65500        65498    50.016438    1.3660893      1000057  0.026638506    148.70344    894.00185   -21.315206   0.41856554    169.60008            0 
   66000        65998    50.059145   0.43722232    981532.12  0.027141268    144.54181     890.4766    -25.44839   0.39413965    169.59606            0 
   66500        66498    50.007361   0.69595966    964141.55  0.027630824    137.22376    882.38691   -32.868554    0.4033384    169.68897            0 
   67000        66998    50.112074   0.21651558    945049.21  0.028189036    132.78792    879.51141   -37.229594    0.3910087    169.62651            0 
   67500        67498    49.917847    2.6067963    927312.27  0.028728215     125.9376    869.76691   -44.243641   0.43173328    169.74951            0 
   68000        67998    50.128248  -0.24148485    917553.35  0.029033763    118.00761    864.97211   -51.999049   0.37667091    169.62999            0 
   68500        68498    50.234662    1.0931064     905216.6  0.029429449    117.84421     866.3944   -52.142555   0.37004676    169.61672            0 
   69000        68998    50.122474    1.2404092    898701.29  0.029642804     106.1357    853.01416    -63.89851   0.37379795    169.66041            0 
   69500        69498    50.297501     2.979138     897958.9  0.029667311    96.853558    846.34011   -73.255358   0.37921058    169.72971            0 
   70000        69998    50.203684    2.0688819    906691.57  0.029381575    92.127981    840.21656   -78.041433   0.36583231    169.80358            0 
   70500        70498    50.065904    4.1628206    926321.25  0.028758949    87.803687     833.8392   -82.582009   0.43454198    169.95115            0 
   71000        70998    50.076815    4.7785226    953491.34  0.027939452    82.754534    828.95263   -87.529421   0.37043208    169.91352            0 
   71500        71498    49.780693    7.2670199    986203.43  0.027012709    82.067427    823.85299    -88.33386   0.38439155    170.01689            0 
   72000        71998    49.862532    5.4655193    1026504.6  0.025952173    77.570694    820.57575    -92.87582   0.35609313    170.09042            0 
   72500        72498    50.032141    4.2695857    1065566.1   0.02500082    76.368874    821.90128   -93.867296   0.33418283    169.90199            0 
   73000        72998    49.931749    3.9326281    1110690.7  0.023985098    78.484492    822.52095   -91.852419   0.33699676    169.99991            0 
   73500        73498    49.893062    5.0225754      1158546  0.022994361    71.987872    815.44785   -98.383045   0.34888241    170.02203            0 
   74000        73998     49.78518    5.8752302      1212708  0.021967387     72.10826    813.96069   -98.307584   0.34435046    170.07149            0 
   74500        74498    50.029536    4.7352936    1269189.2  0.020989799    73.611956    819.10555    -96.84706   0.33190367    170.12711            0 
   75000        74998    49.990876    5.0794168    1331516.7  0.020007278    74.832697    819.75021   -95.565027    0.3392408    170.05848            0 
   75500        75498     49.85835    5.2113041    1397091.8    0.0190682    79.384194    822.32693   -91.104578   0.34804238    170.14073            0 
   76000        75998    49.944781    4.5941344    1469800.4  0.018124928    80.985983    825.21664   -89.352949   0.31637328    170.02256            0 
   76500        76498    49.934516    5.2755267    1541234.1  0.017284867     82.46529    826.54298   -88.099603   0.35248892     170.2124            0 
   77000        76998    49.925068    4.7735458    1623730.1  0.016406684    82.282657    826.21957   -88.303155   0.33179067    170.25402            0 
   77500        77498    49.918819    4.6596572    1709428.3  0.015584173    85.478383    829.32217   -84.986636   0.33560759    170.12941            0 
   78000        77998    49.910951    4.4362087    1798736.1  0.014810414    87.836631    831.56318   -82.660991    0.3272068    170.17041            0 
   78500        78498    49.955154    4.4661591    1896896.9  0.014044003    87.238406    831.62362   -83.261683   0.31665861    170.18343            0 
   79000        78998    49.816163    4.4141461    2004050.3  0.013293093    94.041359    836.35546   -76.658333   0.32376532    170.37593            0 
   79500        79498      49.9463    3.9000689    2113602.3  0.012604086    95.458684    839.71196   -75.252862    0.3266609    170.38488            0 
   80000        79998    49.984872    3.9921584      2223563  0.011980783    97.675229    842.50328    -73.02371   0.32627247    170.37267            0 
   80500        80498     50.00973     3.842044    2345800.4  0.011356476    96.738656    841.93712   -73.912737   0.32206427    170.32933            0 
   81000        80998    49.970362    3.2023199    2475708.1  0.010760568     105.6934    850.30523   -64.960564   0.31671897    170.33725            0 
   81500        81498    49.920726    3.7472805    2603725.2  0.010231505    108.04917    851.92138   -62.785779   0.34338082    170.49157            0 
   82000        81998    50.109239    3.2028442    2746368.7 0.0097000908     106.5725    853.25374    -64.15345   0.33264057    170.39331            0 
   82500        82498    49.992117    3.1784306    2893559.8 0.0092066617    108.13678     853.0728   -62.649812   0.33454394    170.45205            0 
   83000        82998    49.963882    2.3760986    3041776.6  0.008758048    108.64266    853.15793     -62.0643   0.31769204    170.38927            0 
   83500        83498    49.849506    2.8669475    3192230.9 0.0083452692     112.6946    855.50555     -58.3543   0.35433396    170.69457            0 
   84000        83998    50.106125      2.26048    3346316.3 0.0079610006    115.05372    861.68857   -55.734243   0.33290552    170.45506            0 
   84500        84498    49.749248    2.7713667      3508438 0.0075931301    119.23201    860.54901   -51.813887   0.36099889     170.6849            0 
   85000        84998    49.896676    2.2213825    3681355.2 0.0072364726    122.86416    866.37798   -48.015431   0.33904401    170.54055            0 
   85500        85498    49.957479    2.2633538    3855179.2 0.0069101913    121.86721    866.28708   -49.055874   0.34170915    170.58137            0 
   86000        85998    50.037969     2.245594    4037045.3 0.0065988919    125.68736    871.30661   -45.215403   0.34320739    170.55955            0 
   86500        86498    49.857176    2.4469696    4213260.7    0.0063229    129.14256     872.0678   -41.816895   0.35448003    170.60497            0 
   87000        86998    49.901328    2.0551453    4404709.4  0.006048078    132.05125     875.6344   -38.966641   0.37141863    170.64647            0 
   87500        87498    49.920958    1.9322611    4596454.3 0.0057957774    132.07227    875.94793   -39.008737   0.35686794    170.72414            0 
   88000        87998    49.975912    1.8543431    4789601.4 0.0055620549    130.80583    875.50037    -40.19369   0.34511556     170.6544            0 
   88500        88498    50.014565    1.8165102    4994194.1 0.0053341991    132.30034    877.57084   -38.733609   0.34602616    170.68792            0 
   89000        88998    49.938466    1.7841755    5199890.4 0.0051231899    134.48629    878.62284   -36.591594   0.35801037    170.71987            0 
   89500        89498     49.95079    1.6779708    5412989.6 0.0049214996    134.64769    878.96789   -36.477858   0.36220795    170.76334            0 
   90000        89998    49.996881    1.6610121      5618308 0.0047416457    137.86991     882.8769   -33.257466    0.3605787     170.7668            0 
   90500        90498    49.851549    1.5850285    5833157.9 0.0045669989    140.06543    882.90683   -31.175644   0.37128306    170.86979            0 
   91000        90998    49.924562    1.5978959    6031414.6 0.0044168786    141.99896    885.92833   -29.225079   0.36665024    170.85739            0 
   91500        91498    49.926835    1.4486124    6235440.4 0.0042723567    140.71985    884.68309   -30.410915   0.36420566    170.76656            0 
   92000        91998     50.01226    1.4523736    6429387.4 0.0041434781    141.53885      886.775   -29.641505   0.37098196    170.80937            0 
   92500        92498    49.877901    1.4570802    6634037.4 0.0040156581    142.18994      885.424   -29.154922   0.38307136    170.96179            0 
   93000        92998    49.971235    1.4419865    6841638.4 0.0038938079    144.18775     888.8126   -27.043886   0.37405371    170.85758            0 
   93500        93498    50.005385    1.2490988    7033505.5 0.0037875887    144.88286    890.01658   -26.312185   0.35869671    170.83635            0 
   94000        93998    49.955387    1.4189847    7206402.5 0.0036967164    144.57415    888.96284    -26.64732   0.35919468    170.86227            0 
   94500        94498    49.996449    1.2431546    7405431.3 0.0035973632    147.47771    892.47827   -23.648163   0.36685815    170.75901            0 
   95000        94998     49.98234    1.2526211      7565351 0.0035213206    146.95414    891.74446   -24.204354    0.3645877    170.79391            0 
   95500        95498    49.971233    1.2598461    7738307.7 0.0034426165    149.12331    893.74812    -22.18272   0.37822111    170.92781            0 
   96000        95998     49.98028    1.1611347    7896127.6 0.0033738089    150.63454    895.39416    -20.68779   0.37917919    170.94315            0 
   96500        96498     49.93371    1.2953532    8039981.6 0.0033134436    150.77534    894.84102   -20.552487   0.38470989    170.94312            0 
   97000        96998    49.969491    1.1834111    8185660.1  0.003254475    149.94673    894.54558   -21.281631   0.37419493    170.85416            0 
   97500        97498    49.980703    1.1589861    8309154.8 0.0032061054    148.56754    893.33347    -22.71489   0.37088246    170.91155            0 
   98000        97998    50.018487    1.1065672    8431041.1 0.0031597552    147.29825     892.6272   -23.983888    0.3743927    170.90775            0 
   98500        98498    50.069332    1.0137527    8561075.9 0.0031117614    148.15506    894.24166   -23.110733   0.36891975    170.89687            0 
   99000        98998    50.027696   0.99065837    8663737.8 0.0030748883    148.20609    893.67227   -23.141356    0.3716925    170.97576            0 
   99500        99498    50.061263    1.0704604    8740288.3 0.0030479573    148.17898    894.14533   -23.141595   0.37136835    170.94921            0 
  100000        99998    49.983381    1.0547164    8830671.7  0.003016761    149.05551    893.86134   -22.382881   0.38876268    171.04963            0 
  100500       100498    50.002703    1.0633671    8892879.2 0.0029956581    148.75152    893.84527   -22.596725   0.38107709    170.96717            0 
  101000       100998    50.105699   0.96184087    8928391.2 0.0029837431    147.29397    893.92246   -24.055852   0.37741171    170.97241            0 
  101500       101498    49.962747    1.1101902    8958552.8 0.0029736975    144.51399    889.01235   -26.859085   0.37080664    171.00227            0 
  102000       101998    50.039413   0.94629246      9029539 0.0029503196    144.96692    890.60769    -26.46122   0.37277352    171.05536            0 
  102500       102498     49.99785   0.96648728    9084093.1 0.0029326016    146.54092    891.56236   -24.832459   0.38126808    170.99211            0 
  103000       102998    49.993561    1.0332415    9114945.4 0.0029226753    146.69605    891.65357    -24.75171   0.37923974    171.06852            0 
  103500       103498    50.069107    0.9741063    9155819.3 0.0029096278    147.44573    893.52897   -24.071043   0.37856797    171.13821            0 
  104000       103998     49.81627    1.2381552    9195398.7  0.002897104    149.75334    892.06904   -21.753984   0.41001042    171.09731            0 
  104500       104498    49.907577    1.0378978    9286116.7 0.0028688015    150.43433     894.1106   -21.021243   0.38381179    171.07176            0 
  105000       104998    49.964506    0.9695618    9363237.8 0.0028451724    150.18518    894.70976   -21.234517   0.36894619    171.05075            0 
  105500       105498    49.992278   0.96708514    9414617.7  0.002829645    150.45956    895.39797   -21.015042   0.37513867    171.09946            0 
  106000       105998    49.953266    1.0351628    9461155.1 0.0028157266    147.62999    891.98707   -23.812974   0.36924304    171.07372            0 
  106500       106498    50.051791   0.94737756    9552545.4 0.0027887882    149.42592    895.25113   -21.911471   0.37136271    170.96603            0 
  107000       106998    49.987209   0.97669906    9610368.8 0.0027720087    149.29167    894.15455   -22.215306   0.37970687    171.12727            0 
  107500       107498    49.984035   0.98210614    9664724.7 0.0027564185    152.42218    897.23776    -19.10066   0.37492068    171.14792            0 
  108000       107998      50.0608   0.91986641    9692889.2 0.0027484092     150.6355    896.59496   -20.822945   0.37731332    171.08114            0 
  108500       108498    50.086415   0.91334849    9741989.8  0.002734557    151.02298    897.36413   -20.444476   0.38126814    171.08619            0 
  109000       108998    49.962219   0.93580297    9769723.9 0.0027267941    151.18081    895.67131   -20.301607   0.38189199    171.10053            0 
  109500       109498     49.95539   0.97711872    9799046.2 0.0027186346    149.31938    893.70813   -22.342125   0.38066534    171.28084            0 
  110000       109998    50.023554   0.93753445    9864057.4 0.0027007168    151.13613    896.54058   -20.305638   0.37409745    171.06767            0 
  110500       110498    49.928959    1.0223722      9897924 0.0026914761    150.88866    894.88355   -20.616925    0.3890008    171.11659            0 
  111000       110998    49.973889   0.91422398    9951815.2 0.0026769012    151.05232    895.71672   -20.470904    0.3691917    171.15404            0 
  111500       111498    49.937965   0.93461992     10004582 0.0026627825    151.70837    895.83745   -19.805685   0.37022205    171.14383            0 
  112000       111998    50.028161   0.99262267     10069476 0.0026456218    152.12515    897.59825   -19.371384    0.3712917    171.12524            0 
  112500       112498    49.991111    1.0177163     10151017 0.0026243701    155.19526    900.11627   -16.344992   0.37730407    171.16295            0 
  113000       112998    49.931584    1.1042194     10195126 0.0026130159    154.20851    898.24251   -17.489954   0.38322006    171.31524            0 
  113500       113498    49.926009    1.0519849     10265055 0.0025952151    152.56291    896.51383   -19.202037   0.39789196    171.36705            0 
  114000       113998    50.036437   0.98594308     10366099 0.0025699181    152.33365    897.93007   -19.106205   0.35616161    171.08369            0 
  114500       114498    49.970864    1.0758109     10441282 0.0025514132    152.11204    896.73135     -19.4014   0.36964068     171.1438            0 
  115000       114998    49.947884    1.0217409     10512310 0.0025341742     154.2172    898.49409   -17.309469   0.37338328    171.15329            0 
  115500       115498    50.016306    1.0170868     10559196 0.0025229218    154.14555    899.44199   -17.467339   0.35675211    171.25613            0 
  116000       115998    49.942709     1.073425     10575776 0.0025189665    154.64524    898.84501    -16.98652   0.36865601    171.26311            0 
  116500       116498    49.986736     1.024042     10592440 0.0025150036    154.41766    899.27348   -17.104763   0.34943453    171.17299            0 
  117000       116998    49.964871    1.0320142     10608090 0.0025112933    154.96736    899.49738   -16.506081   0.34399937    171.12944            0 
  117500       117498    50.029155     1.050755     10651619 0.0025010306     154.3803    899.86822   -17.030551   0.34116972    171.06968            0 
  118000       117998    49.971612    1.0094906     10725426 0.0024838199    154.12132    898.75178    -17.41167   0.33709012     171.1959            0 
  118500       118498    50.059578    1.0284488     10771216 0.0024732608    153.00064    898.94188    -18.56461   0.34359741    171.22165            0 
  119000       118998    50.010445    1.0174594     10818388 0.0024624765    153.28256    898.49168   -18.221903   0.35328381    171.15118            0 
  119500       119498     50.05491    1.0041476     10842774 0.0024569381    152.33232    898.20401    -19.23042   0.34474407    171.21799            0 
  120000       119998    50.019048    1.0152117     10840731 0.0024574014    151.73834    897.07565   -19.789493   0.34711973    171.18071            0 
  120500       120498    49.915802    1.0447444     10840902 0.0024573625    153.08674    896.88558   -18.512929   0.34441894    171.25525            0 
  121000       120998    50.055318   0.96980774     10863818  0.002452179    153.54497    899.42274   -17.959234   0.32981458    171.17439            0 
  121500       121498    50.032166    1.0524983     10876569 0.0024493042    151.23123    896.76401   -20.244926   0.32715106      171.149            0 
  122000       121998    50.015998    1.0551818     10928445 0.0024376777    150.84562    896.13748   -20.740331   0.33036433    171.25559            0 
  122500       122498    50.039182     1.027481     10996804 0.0024225244    153.38414    899.02146   -18.198717   0.33475183     171.2481            0 
  123000       122998    50.011509    1.0026691     11034011 0.0024143556    150.80203      896.027   -20.681821   0.33422621    171.14963            0 
  123500       123498    50.008242    1.0162778     11065420 0.0024075024    153.74955    898.92583   -17.705244   0.33507376    171.11972            0 
  124000       123998     49.99128    1.1053268     11067904 0.0024069622    153.69761    898.62115   -17.922912   0.33897154    171.28155            0 
  124500       124498    50.008582    1.0924114     11097179 0.0024006124    153.32368    898.50503   -18.355244   0.31864997    171.36028            0 
  125000       124998     50.04362    1.0032126     11179742 0.0023828838    153.23413    898.93758   -18.237636   0.32821484    171.14355            0 
  125500       125498    49.953598    1.0661981     11277296 0.0023622707    155.76438    900.12641   -15.854217   0.33648635    171.28211            0 
  126000       125998    49.998833    1.0187544     11350121 0.0023471138    154.75849    899.79458   -16.770724   0.32833211    171.20088            0 
  126500       126498    50.002117    1.0097547     11402807  0.002336269    155.52142    900.60644   -16.027689   0.32397758    171.22513            0 
  127000       126998    50.050518    1.0535173     11417636 0.0023332347    152.24874    898.05498   -19.369227    0.3308539    171.28711            0 
  127500       127498    50.051029    1.0424275     11460355 0.0023245376    153.82702    899.64088   -17.792988   0.33005657    171.28995            0 
  128000       127998     49.95718    1.0658892     11499142 0.0023166968    155.98246    900.39787   -15.655577    0.3306094    171.30743            0 
  128500       128498    49.964487    1.0412171     11508024 0.0023149088    154.37222    898.89651   -17.246193   0.34182554    171.27659            0 
  129000       128998    49.920319    1.0840838     11531888 0.0023101184    155.40511    899.27126    -16.33909   0.34432492    171.39988            0 
  129500       129498     49.99751   0.95766833     11570544 0.0023024004    158.50514     903.5215   -13.046306   0.32428602    171.22716            0 
  130000       129998    50.005085   0.97536063     11579523  0.002300615    158.37809    903.50733   -13.168134   0.32448323    171.22174            0 
  130500       130498    49.984241   0.99495751     11604004 0.0022957615    159.52416    904.34281   -12.129841   0.33806991    171.31593            0 
  131000       130998    50.041913   0.97981766     11642016 0.0022882656    158.06934    903.74736   -13.551303    0.3417751    171.27887            0 
  131500       131498    50.028791    0.9982232     11698985 0.0022771228    156.06632     901.5488   -15.591646   0.34727718    171.31069            0 
  132000       131998    49.969912   0.94445257     11783758 0.0022607412    158.82655    903.43167   -12.802128   0.32305895    171.30562            0 
  132500       132498    50.092421   0.95631132     11813500 0.0022550493    156.65121    903.08186   -14.930811   0.32687622    171.25515            0 
  133000       132998    49.943159   0.97986014     11870462 0.0022442283    156.12883    900.33532   -15.564417   0.35468881    171.33856            0 
  133500       133498    49.993177   0.96163733     11903317 0.0022380337    155.61295    900.56476    -16.15575     0.337668    171.43104            0 
  134000       133998    50.005631   0.93463516     11921407 0.0022346378    155.08365    900.22103   -16.570485   0.32877122    171.32536            0 
  134500       134498    50.063897   0.94291059     11937470 0.0022316308    154.86248    900.86809   -16.668469   0.33350157    171.19745            0 
  135000       134998    49.945907   0.96739445     11948399 0.0022295897    154.96156    899.20899    -16.71749   0.33623074    171.34282            0 
  135500       135498    49.933808    1.0001198     11957876 0.0022278225    155.35079    899.41792   -16.293053   0.33944797    171.30439            0 
  136000       135998    49.985839   0.97737753     11990439 0.0022217724    155.42149    900.26395   -16.215762   0.32583748    171.31141            0 
  136500       136498    49.990956   0.95113973     12050114 0.0022107696    156.42445    901.34315   -15.338605   0.33170007    171.43135            0 
  137000       136998    50.003857    0.9838875     12123568 0.0021973751    159.10126    904.21221   -12.645047   0.33732661    171.40898            0 
  137500       137498     49.99955   0.97172351     12174740 0.0021881392    158.50888    903.55565     -13.1672   0.33774309    171.33834            0 
  138000       137998     50.05667    0.9542698     12222945 0.0021795096    157.57119    903.46911   -14.023651   0.33049767    171.26435            0 
  138500       138498    50.017637   0.96984809     12251721 0.0021743905    158.34256    903.65884   -13.417917   0.33180536    171.42867            0 
  139000       138998    50.011802   0.97295616     12269670 0.0021712097    159.95498    905.18432   -11.791161   0.32084919     171.4253            0 
  139500       139498    49.992646   0.95710441     12295997 0.0021665609    159.39047    904.33436   -12.350145   0.32560557    171.41501            0 
  140000       139998    49.924492     1.029904     12304663 0.0021650349    157.65758    901.58591   -14.130315   0.34047575    171.44742            0 
  140500       140498    50.013768   0.97101204     12327646 0.0021609987    157.94046    903.19909   -13.790246   0.32322917    171.40748            0 
  141000       140998    50.106881    1.0061399     12326222 0.0021612483    156.37218     903.0183   -15.489942    0.3233405    171.53878            0 
  141500       141498    49.960668    1.0305247     12352359 0.0021566752    159.18416    903.65155    -12.63233   0.33380158    171.48269            0 
  142000       141998    49.990994   0.96641433     12354962 0.0021562208    158.03912     902.9584   -13.606767   0.31447454    171.33142            0 
  142500       142498    50.006351     0.965846     12344748 0.0021580048    158.62374    903.77185   -12.995137   0.31083892    171.30803            0 
  143000       142998    50.020235    1.0003211     12313075 0.0021635559    157.75421    903.10921   -14.028785   0.33245747    171.45054            0 
  143500       143498    50.005077    1.0493479     12266888  0.002171702    155.93919    901.06833   -16.012453   0.33064807      171.621            0 
  144000       143998     50.01042    1.0226374     12268762 0.0021713703    156.50463    901.71337   -15.409993   0.32982147     171.5848            0 
  144500       144498    49.961485    1.0630788     12285678 0.0021683806    157.58222    902.06177   -14.210475   0.33938597    171.45331            0 
  145000       144998    50.033633    1.0231384     12325618 0.0021613541    157.88036      903.435   -13.743632   0.31051283    171.31348            0 
  145500       145498    49.966525    1.0873659     12381123 0.0021516647    157.67208    902.22674   -14.029759   0.30287383    171.39897            0 
  146000       145998    50.004493    1.0086737     12468422 0.0021365997    158.37994    903.50036   -13.260635   0.30037156    171.34021            0 
  146500       146498    50.011772    1.0437481     12524601  0.002127016    157.35432     902.5832   -14.413848   0.30463227    171.46354            0 
  147000       146998     49.98429     1.021205     12578982 0.0021178205     157.3661    902.18548   -14.420312   0.30866942    171.47774            0 
  147500       147498     50.00159    1.0365073     12589715  0.002116015    159.15497    904.23213   -12.607628    0.3074897     171.4551            0 
  148000       147998    50.016203    1.0147421     12599072 0.0021144435    160.32431    905.61922   -11.463444   0.30476522    171.48299            0 
  148500       148498      49.9936    1.0320098     12598678 0.0021145097    160.38509    905.34319   -11.417541   0.32266903    171.47996            0 
  149000       148998    49.995493    1.0220044     12580207 0.0021176143    157.78962    902.77594   -13.931778   0.30663006    171.41477            0 
  149500       149498    49.903398    1.0694904     12575903  0.002118339    157.80545    901.41944   -13.938426   0.32176673    171.42211            0 
  150000       149998     49.99842    1.0501209     12583159 0.0021171175    156.12021    901.15015   -15.616064    0.3121629    171.42412            0 
  150500       150498    49.958126      1.04639     12591263 0.0021157549    156.88414    901.31365   -14.895941   0.31060165    171.46948            0 
  151000       150998    50.044615    1.0346717     12559606 0.0021210878     154.7702    900.48847   -17.054326   0.31206851    171.51245            0 
  151500       151498    50.005871    1.0369888     12568537 0.0021195805    155.14445    900.28541   -16.795963   0.33002246    171.61039            0 
  152000       151998    49.968766    1.0055884     12603981   0.00211362    153.81022    898.39827   -18.013307   0.31059437    171.51293            0 
  152500       152498    49.962673    1.0701457     12655939 0.0021049427    151.28697    895.78423   -20.481918   0.30764878    171.46124            0 
  153000       152998    49.889782    1.0854848     12727537 0.0020931015    152.33843    895.74953   -19.542179   0.32458975    171.55602            0 
  153500       153498    49.944064    1.0334301     12780341 0.0020844534    156.24013     900.4601   -15.609703   0.31965969    171.53018            0 
  154000       153998    50.004904   0.97976261     12798938 0.0020814248    156.82981    901.95636   -14.922785   0.30113377    171.45146            0 
  154500       154498    49.956129    1.0059442     12806792 0.0020801483    159.76678    904.16652   -12.023505   0.31884561    171.47144            0 
  155000       154998    49.974314    1.0370547     12804262 0.0020805593    157.26601    901.93674   -14.733568   0.32656569    171.67302            0 
  155500       155498     50.02501   0.94304643     12826443 0.0020769613    158.40129    903.82744   -13.466183   0.32037783    171.54709            0 
  156000       155998     50.01356    1.0052844     12815083 0.0020788024    157.07961    902.33515   -14.785158   0.31737055     171.5474            0 
  156500       156498     49.99301   0.95021825     12833732 0.0020757816    156.43326    901.38257   -15.469457   0.31611564     171.5866            0 
  157000       156998    50.001305   0.96731054     12839887 0.0020747867    156.39539    901.46831   -15.429918   0.31392627    171.51138            0 
  157500       157498    49.990749   0.96744159     12830904 0.0020762393    157.29537      902.211   -14.621104   0.30941372    171.60706            0 
  158000       157998    50.003183    1.0126772     12839593 0.0020748341     158.8754    903.97631   -12.995527   0.32462951     171.5463            0 
  158500       158498    50.040917   0.94101828     12902788  0.002064672    159.01936    904.68255   -12.712454   0.31947536    171.41234            0 
  159000       158998    49.948557    1.0437028     12931813  0.002060038    158.94265    903.22957   -13.013443    0.3354429    171.62065            0 
  159500       159498     49.94588   0.97522448     12977214 0.0020528309    158.48023    902.72726   -13.317441   0.32119143    171.47648            0 
  160000       159998    49.928626    1.0272983     13002447 0.0020488471    159.74557     903.7355   -12.237336   0.32893507    171.65397            0 
  160500       160498    50.001243   0.93752753     13022522 0.0020456887    159.49066    904.56265   -12.448957   0.31938652    171.62023            0 
  161000       160998    49.952434      1.00897     13025199 0.0020452682     159.1715    903.51619   -12.726795   0.31615286    171.58215            0 
  161500       161498    49.952098   0.96295198     13066107 0.0020388649    160.40639    904.74607   -11.488693   0.31101204    171.58407            0 
  162000       161998    50.009152   0.97908756     13120005  0.002030489    159.05524    904.24509   -12.725278    0.3119048    171.46862            0 
  162500       162498    50.042675     0.957662     13188595  0.002019929    160.04772    905.73709   -11.748915   0.30648902    171.49014            0 
  163000       162998    49.972038   0.96891699     13221586 0.0020148888    160.93522    905.57202   -10.849363   0.31499484    171.46959            0 
  163500       163498    49.957839   0.99199904     13220959 0.0020149844    159.69065    904.11587   -12.334591   0.31545047    171.70979            0 
  164000       163998    49.997624    1.0070038     13204937 0.0020174292     157.8154    902.83347   -14.179173   0.32483815    171.66973            0 
  164500       164498    49.980462   0.96478439     13212303 0.0020163044    158.49958    903.26191   -13.413252   0.31810135    171.59473            0 
  165000       164998    50.079968    1.0647943     13168175 0.0020230614    155.15143     901.3965   -16.920303   0.32302627     171.7487            0 
  165500       165498    50.059405   0.98272164     13206750 0.0020171524    156.31133       902.25   -15.554431   0.30710155    171.55866            0 
  166000       165998    50.010869   0.98584654     13239596  0.002012148    156.61798    901.83341   -15.254713   0.31231359    171.56038            0 
  166500       166498    50.043707   0.98266106     13259793 0.0020090831    155.82253    901.52727   -16.099275   0.31266488    171.60914            0 
  167000       166998    50.015416   0.99880507     13264044 0.0020084392    157.00921     902.2924   -14.986816   0.30888519    171.68714            0 
  167500       167498    49.968277   0.99192625     13265070 0.0020082839    156.94429    901.52506   -15.120379   0.30930157    171.75537            0 
  168000       167998    50.014548   0.98710931     13254340 0.0020099096     156.6275    901.89776   -15.339488   0.31107625    171.65591            0 
  168500       168498    50.018973     1.006884     13235047 0.0020128395    154.16322    899.49941   -17.658043   0.30692045    171.51434            0 
  169000       168998    50.063721    1.0180038     13230694 0.0020135018    155.04348    901.04647   -16.868621   0.30134561    171.61076            0 
  169500       169498    49.963554    1.0402171     13246475  0.002011103    155.91953    900.42992   -16.000313   0.30052479    171.61932            0 
  170000       169998    50.003163    1.0648289     13257319 0.0020094581    156.92242    902.02302    -15.07412   0.30334469     171.6932            0 
  170500       170498    49.950814    1.0565775     13300197 0.0020029799    160.07856    904.39911   -12.017405   0.30233581    171.79363            0 
  171000       170998    49.986657    1.0565421     13319527 0.0020000729    157.41163    902.26628   -14.476573   0.30602445    171.58218            0 
  171500       171498    50.000729    1.0151245     13373632 0.0019919813    157.89814    902.96247   -13.989253   0.29879683    171.58859            0 
  172000       171998    50.026036    1.0133984     13433895 0.0019830455    159.60143    905.04287   -12.255593   0.29503763    171.56199            0 
  172500       172498    49.991347    1.0309868     13472200 0.0019774073     159.9927    904.91724   -12.033523   0.29871887    171.72751            0 
  173000       172998    50.010498   0.99596664     13492864 0.0019743788      160.294     905.5039   -11.649171   0.29091433    171.65226            0 
  173500       173498    50.028958    1.0317272     13490762 0.0019746865    160.82974    906.31471   -11.199543   0.28928847       171.74            0 
  174000       173998     49.99546    1.0218974     13511668 0.0019716312    161.02689    906.01271   -10.890015    0.3045916    171.61231            0 
  174500       174498    50.040284    1.0214834     13523641 0.0019698856    160.54389    906.19763   -11.373088   0.31128402    171.60569            0 
  175000       174998    49.963023    1.0355901     13530486  0.001968889    159.62448    904.12695   -12.404039   0.30873885    171.71978            0 
  175500       175498    49.993075    1.0168484     13539553 0.0019675705    160.99012     905.9404   -11.011413   0.29119927    171.71033            0 
  176000       175998    49.979087   0.99043631     13539884 0.0019675225    160.75807    905.49992   -11.270302   0.28399186    171.74438            0 
  176500       176498    49.995672    1.0074508     13544318 0.0019668783    162.28178    907.27076    -9.801609   0.28459822    171.79879            0 
  177000       176998    50.000569    1.0338694     13520391 0.0019703591     159.5074    904.56936   -12.445248   0.29352509    171.65913            0 
  177500       177498    49.998856    1.0649421     13529635 0.0019690129    159.57065    904.60707   -12.410252   0.31826851    171.66263            0 
  178000       177998    49.997885    1.0193877     13568484 0.0019633752    160.30696    905.32892   -11.654642   0.31131525    171.65029            0 
  178500       178498    50.046732    1.0478431     13592704 0.0019598768    158.07176    903.82159   -13.966024   0.29826282    171.73952            0 
  179000       178998    49.918355    1.0432997     13624913 0.0019552437    162.06048    905.89736   -10.175247    0.3183932    171.91733            0 
  179500       179498    49.973827   0.97252211     13644641 0.0019524168     159.4655    904.12897   -12.624245    0.2899159    171.79983            0 
  180000       179998    50.013589   0.99632586     13664451 0.0019495862     160.3848    905.64076   -11.526077   0.28977718     171.6211            0 
  180500       180498    50.044407   0.97339358     13664271 0.0019496119    160.92733    906.64252   -10.975419   0.29787197    171.60488            0 
  181000       180998    50.021883   0.98252686     13650961 0.0019515128    160.49102    905.87057   -11.451461   0.30342201    171.63906            0 
  181500       181498    50.011732   0.97531556     13661006 0.0019500779    158.98072    904.20901   -12.987063   0.30864982    171.65913            0 
  182000       181998    49.975627    1.0121219     13703362 0.0019440503    160.26655    904.95684    -11.85383   0.30871025    171.81167            0 
  182500       182498    50.005036   0.95659453     13768624 0.0019348357    161.44982    906.57832   -10.583276   0.30592919    171.72716            0 
  183000       182998    49.990558   0.99845069     13786003 0.0019323966    161.21199    906.12477   -10.823815   0.30741838    171.72839            0 
  183500       183498    50.013307   0.91948031     13825145 0.0019269255    161.26241    906.51418   -10.726827   0.29633064    171.69291            0 
  184000       183998    49.995758   0.96334964     13844689 0.0019242055    159.40838    904.39865   -12.577543   0.30227653    171.68365            0 
  184500       184498    50.007008   0.92100506     13858629 0.0019222699    160.52636    905.68426    -11.54382   0.30056316    171.76961            0 
  185000       184998    50.023215   0.95659678     13853710 0.0019229525    158.79485    904.19425   -13.197928   0.30426257    171.68852            0 
  185500       185498    49.981845   0.97401003     13884890 0.0019186343    160.72506    905.50799   -11.344991   0.32056178    171.74948            0 
  186000       185998    49.991514   0.97029471     13905494 0.0019157914    160.26718    905.19421   -11.724102   0.31802111    171.67327            0 
  186500       186498    50.036073   0.95732533     13923353 0.0019133341    159.98439    905.57538   -12.115007   0.30281024    171.79659            0 
  187000       186998    49.962931   0.99212292     13906387 0.0019156684    161.52949     906.0306    -10.61231   0.30044692    171.84135            0 
  187500       187498     50.04217   0.94939467     13890310 0.0019178856    159.74204    905.42389   -12.331721   0.30508791    171.76867            0 
  188000       187998    49.985751   0.96758374     13898667 0.0019167324    160.88498    905.72612   -11.110571   0.30131045    171.69424            0 
  188500       188498    50.009002   0.97814869     13893385 0.0019174612    161.16441    906.35203   -10.860318   0.30371533    171.72101            0 
  189000       188998    49.994293   0.96568468     13901481 0.0019163445    159.39904    904.36748   -12.729402   0.30659704    171.82184            0 
  189500       189498    49.964295   0.99975249     13903672 0.0019160425    160.83128     905.3527   -11.283205   0.31420678    171.80028            0 
  190000       189998    49.976183     1.040731     13880796 0.0019192002    159.07504    903.77361   -13.035207   0.30990163    171.80034            0 
  190500       190498    50.036673   0.98095869     13903295 0.0019160944    160.72267    906.32261   -11.247737   0.29605301    171.67435            0 
  191000       190998    49.997499   0.99245979     13927756 0.0019127293    159.37166    904.38786   -12.695997   0.29644055    171.77121            0 
  191500       191498    49.977489   0.99092268     13949515 0.0019097456    160.28497      905.003   -11.809252   0.29840639    171.79582            0 
  192000       191998     50.03027   0.97785745     13938257 0.0019112883     158.4617    903.96622    -13.58353   0.28808751    171.75714            0 
  192500       192498    49.981599    1.0159441     13937249 0.0019114265    157.34768    902.12695    -14.77095   0.29159956    171.82703            0 
  193000       192998    49.957515    1.0307383     13975298 0.0019062224    159.75398    904.17438   -12.354016   0.29589861    171.81209            0 
  193500       193498    50.015103    1.0261393     14015659  0.001900733    160.81258     906.0911   -11.227217   0.29579507      171.744            0 
  194000       193998     50.01852    1.0193494     14054403 0.0018954932    161.17759    906.50703   -10.816605   0.28580802    171.70839            0 
  194500       194498    50.016019    1.0040308     14093383 0.0018902506    161.45664    906.74881   -10.581679   0.28816119    171.75016            0 
  195000       194998    49.956498    1.0456369     14095207 0.0018900061    160.18078    904.58602   -11.861873   0.29115647     171.7515            0 
  195500       195498    49.987264    1.0558642     14080241  0.001892015    158.93087    903.79456   -13.163756   0.28627986    171.80835            0 
  196000       195998    50.000775    1.0258313     14073467 0.0018929256    159.06264    904.12765   -13.091318   0.28325335     171.8707            0 
  196500       196498     49.99716    1.0420304     14048529 0.0018962858    160.01544    905.02659   -11.995372   0.28848696    171.72232            0 
  197000       196998    50.018016    1.0260599     14039091 0.0018975606    160.14289    905.46482    -11.79814   0.28512287    171.65591            0 
  197500       197498    50.006511    1.0598548     14021717 0.0018999118    158.05836    903.20886   -13.916961   0.28464043    171.69068            0 
  198000       197998     50.04113     1.035831     14058498 0.0018949411    159.64903    905.31538   -12.489396   0.28792131    171.85051            0 
  198500       198498    49.988238    1.0384529     14083390 0.0018915919    158.08515    902.96335   -13.996066   0.28528665    171.79593            0 
  199000       198998    49.961752    1.0240962     14092785 0.0018903309    159.09871    903.58225   -12.971766   0.27924787    171.79123            0 
  199500       199498     50.04663    1.0025978     14058560 0.0018949328    157.63593    903.38424   -14.299855   0.28168815     171.6541            0 
  200000       199998    50.027156      1.03604     14036546 0.0018979047    157.66141    903.11954   -14.389666   0.28283208    171.76825            0 
  200500       200498    50.027009    1.0422525     14020667 0.0019000541    157.07451    902.53045    -15.01447   0.29108037     171.7979            0 
  201000       200998    49.982999    1.0283813     14048443 0.0018962974     157.4102    902.21035    -14.63185   0.29691756    171.74514            0 
  201500       201498    49.910846    1.0810181     14071633 0.0018931722    159.33894    903.06391   -12.892823   0.30303628    171.92873            0 
  202000       201998    50.011882    1.0318887     14081658 0.0018918245    160.48159    905.71212   -11.580277   0.29977877    171.76209            0 
  202500       202498    49.995485   0.98566553     14071451 0.0018931968    158.01066    902.99685   -14.031765   0.28382559     171.7586            0 
  203000       202998    50.001959   0.99376186     14054994 0.0018954136    156.08795    901.17062   -16.079198   0.27842857    171.88872            0 
  203500       203498    50.059236    1.0061535     14049111 0.0018962072    155.86699    901.80314   -16.193219   0.28578959    171.77442            0 
  204000       203998     50.01062   0.99912492     14073412  0.001892933    156.74476    901.95648   -15.264307   0.28780098    171.72127            0 
  204500       204498    50.000464    1.0039919     14096744 0.0018897999    154.96635    900.02674   -17.058683   0.28825373    171.73678            0 
  205000       204998    49.938623    1.0236582     14145724 0.0018832564     158.7361    902.87499   -13.359061   0.29923465    171.79593            0 
  205500       205498    50.006378   0.98374636     14195614 0.0018766378      159.773    904.92151   -12.466802   0.29344989    171.94635            0 
  206000       205998    49.979256   0.96369175     14253619 0.0018690008    158.57753     903.3219   -13.535126    0.2873889    171.82527            0 
  206500       206498    50.024643   0.97226246     14286380 0.0018647149    158.33659    903.75728   -13.761359   0.29823813    171.79971            0 
  207000       206998    49.855132    1.0090088     14293619 0.0018637706    160.84107    903.73585   -11.608318   0.32161844    172.12777            0 
  207500       207498    50.010709   0.96481966     14289993 0.0018642434    159.46777    904.68082    -12.59488   0.28654973     171.7761            0 
  208000       207998    49.972789   0.98525662     14278000 0.0018658093    159.61005    904.25804   -12.409667   0.29797483    171.72174            0 
  208500       208498    50.064336   0.93285654     14276451 0.0018660118     160.0921    906.10424   -11.929612   0.29631626    171.72539            0 
  209000       208998    49.951586   0.97040668     14262216 0.0018678743    160.72387    905.05592   -11.540614   0.29860641    171.96588            0 
  209500       209498    49.911034    1.0494414     14233115 0.0018716933    161.86076    905.58855   -10.465058   0.30285387    172.02296            0 
  210000       209998    49.954026    0.9933585     14254684 0.0018688612    162.27428    906.64268   -9.8940139   0.30557806    171.86271            0 
  210500       210498    49.944139    0.9965575     14272895 0.0018664767    163.02874    907.24983   -9.0784448   0.31489639    171.79229            0 
  211000       210998    50.053694   0.99437996     14284644 0.0018649416    159.46401    905.31757   -12.606951   0.28421433    171.78675            0 
  211500       211498    49.988992   0.96102126     14340281 0.0018577059    160.18287     905.0723   -11.940333   0.29148764    171.83171            0 
  212000       211998    50.012628   0.98174014     14369852 0.0018538831    161.47746     906.7191    -10.56955   0.30684449    171.74017            0 
  212500       212498    49.946579   0.98265633     14408011 0.0018489732    162.87106     907.1285   -9.3694755   0.30183797     171.9387            0 
  213000       212998    49.978855    1.0229371     14437603 0.0018451834    160.24446    904.98285   -11.902487   0.28446807    171.86247            0 
  213500       213498     50.04141   0.96566793     14512804 0.0018356223     162.1434    907.81392   -10.048543   0.28377192    171.90818            0 
  214000       213998      49.9613    1.0004182     14552639 0.0018305976    165.33882    909.81562   -6.8503456   0.29882776    171.89034            0 
  214500       214498     50.03331   0.97146225     14545598 0.0018314838    164.64057    910.19039   -7.4268859   0.29192732    171.77552            0 
  215000       214998    50.028931   0.98670687     14513334 0.0018355553    163.04106    908.52565   -9.1281513   0.28705242    171.88216            0 
  215500       215498    50.022082    1.0139503     14486485 0.0018389571    161.30866    906.69117   -10.781628   0.28779185    171.80249            0 
  216000       215998    50.087452   0.95141162     14490613 0.0018384333    159.88795    906.24454   -12.162398   0.28740019    171.76294            0 
  216500       216498    49.913538    1.0375684     14466868 0.0018414509    161.69584    905.46093   -10.584419   0.29477198    171.98549            0 
  217000       216998    50.005266     1.000933     14446850 0.0018440023     160.7609    905.89284     -11.4171   0.29125749    171.88674            0 
  217500       217498    49.959753    1.0197158     14425725 0.0018467027    159.47632    903.93006   -12.722719   0.27698129    171.92206            0 
  218000       217998    50.003151    1.0038093     14440830 0.0018447711    159.84362    904.94404   -12.197619    0.2778898    171.76335            0 
  218500       218498     50.00467    1.0069494     14451728   0.00184338    159.47373    904.59678   -12.617596   0.28038142    171.81094            0 
  219000       218998    49.877104    1.0691625     14496107 0.0018377366    162.90813    906.13033   -9.3117134   0.27944285     171.9404            0 
  219500       219498    49.991498    1.0405496     14551823 0.0018307002    161.65812     906.5849   -10.506104   0.27776599    171.88646            0 
  220000       219998    50.022002    1.0452488     14608488 0.0018235991    160.82094    906.20226    -11.20727   0.27267941    171.75553            0 
  220500       220498    49.971848    1.0328032     14686778 0.0018138782    161.97136    906.60533   -10.293974   0.27872935    171.98661            0 
  221000       220998     49.95675    1.0178737     14745768 0.0018066219    161.67256    906.08157   -10.600492   0.28189357    171.99116            0 
  221500       221498    50.026406    1.0053945     14770593 0.0018035855    161.37173    906.81868   -10.795775   0.28096074    171.88655            0 
  222000       221998    50.032856    1.0208699     14756134 0.0018053527    161.86394      907.407   -10.348724   0.28178793    171.93087            0 
  222500       222498    49.966989    1.0169212     14760491 0.0018048197    160.97733     905.5389   -11.198509   0.29029838    171.88554            0 
  223000       222998    50.029773    1.0331654     14763592 0.0018044407    162.52711    908.02423   -9.7119022   0.28648946    171.95252            0 
  223500       223498    49.968539    1.0388277     14719289 0.0018098718    161.19745    905.78212   -11.043429   0.27872944    171.96215            0 
  224000       223998     50.03854   0.98810815     14686855 0.0018138686      161.948    907.57576   -10.239606    0.2702489    171.91735            0 
  224500       224498    50.019154    1.0240005     14678178 0.0018149409    161.89516    907.23406   -10.299053    0.2787764    171.91544            0 
  225000       224998    49.960196    1.0432225     14707753 0.0018112913    161.99044    906.45079   -10.177836   0.28207925     171.8862            0 
  225500       225498    50.069407    1.0015324     14750945 0.0018059878    162.54155    908.62926   -9.6501993   0.27936522    171.91238            0 
  226000       225998    50.014357    1.0213066     14778781 0.0018025862    163.47804    908.74544   -8.7600003   0.28943859    171.94861            0 
  226500       226498    49.905702    1.0626087     14795591 0.0018005382    163.82262    907.47096   -8.5166194   0.33799958    172.00124            0 
  227000       226998     49.98385   0.99908233     14815651 0.0017981002    161.04238    905.85519   -11.012606    0.2884621    171.76652            0 
  227500       227498    49.973412    1.0158826     14823983 0.0017970897    161.27047    905.92775   -11.018275   0.28852611    172.00022            0 
  228000       227998    49.970816    1.0116929     14807390 0.0017991034    161.11105    905.72965   -11.176438   0.28918403    171.99831            0 
  228500       228498    49.980991    1.0048135     14800042 0.0017999966    162.04636    906.81658   -10.245073   0.28846052    172.00297            0 
  229000       228998    50.018708   0.97582231     14784448 0.0018018953    163.19798    908.53022   -8.9672483   0.28671207    171.87852            0 
  229500       229498    49.941425    1.0281792     14763913 0.0018044014    163.25731    907.43795   -9.0044437   0.29837812    171.96337            0 
  230000       229998    50.007914   0.97166855     14765557 0.0018042006    163.40074    908.57214   -8.8042146   0.28472294    171.92024            0 
  230500       230498    50.008259   0.99636704     14747455 0.0018064152    162.38616    907.56269   -9.7405591   0.28098183    171.84573            0 
  231000       230998    49.988501   0.99690046     14747126 0.0018064555    163.23713    908.11926   -9.0868679   0.31021719    172.01378            0 
  231500       231498    49.962235   0.99352467     14731871  0.001808326    162.21089    906.70162   -10.139452   0.30104291     172.0493            0 
  232000       231998    50.022975   0.98124543     14705468 0.0018115728    159.12727    904.52309   -13.065015   0.29321238    171.89908            0 
  232500       232498     50.00931   0.95307992     14716466 0.0018102189    160.99833    906.19053   -11.274111   0.28721955    171.98522            0 
  233000       232998    50.044941   0.94658813     14700372 0.0018122008    160.62021    906.34335   -11.469547   0.28668847    171.80307            0 
  233500       233498    50.024043   0.93913656     14684725 0.0018141317     161.6937    907.10543   -10.466764   0.29265462    171.86781            0 
  234000       233998    50.013851   0.96496836     14676318  0.001815171    161.25697    906.51684   -11.060001   0.28060926    172.03636            0 
  234500       234498     50.03135   0.96391498     14674194 0.0018154336    160.81271    906.33333   -11.380061    0.2905991    171.90217            0 
  235000       234998      49.9573   0.96010766     14687773 0.0018137553    161.63337    906.05056   -10.710534   0.30106969    172.04283            0 
  235500       235498    50.044949   0.95926472     14693790 0.0018130126    162.11368    907.83695   -10.128195   0.29035767    171.95152            0 
  236000       235998    49.961654    1.0511647     14673986 0.0018154594    161.64279    906.12487   -10.602045   0.30079158    171.94405            0 
  236500       236498    49.945659    1.0175199     14693534 0.0018130442    162.76542    907.00915   -9.5345553   0.30237862     171.9976            0 
  237000       236998    49.937382     1.070703     14717738 0.0018100625    162.76977    906.89018   -9.4451165   0.29397881    171.92091            0 
  237500       237498    49.958864   0.95658774     14816476 0.0017980001    164.01416    908.45466   -8.3159712   0.27746591    172.05267            0 
  238000       237998     50.06049   0.94396073     14845809 0.0017944476    161.58427    907.53911   -10.572745   0.27721289     171.8798            0 
  238500       238498    49.976599   0.97308921     14857798 0.0017929996    162.23477    906.93954   -10.075928   0.27832373    172.03238            0 
  239000       238998    50.003805   0.96669207     14837869 0.0017954078    159.63727    904.74745    -12.62324   0.28599067    171.97452            0 
  239500       239498    49.998076    1.0018749     14805700 0.0017993088     159.1513     904.1761   -13.160357   0.28561723    172.02604            0 
  240000       239998    50.021036    1.0013484     14780696 0.0018023526    158.93124    904.29817   -13.299656   0.29560957    171.93529            0 
  240500       240498    50.064549   0.98072341     14773824 0.0018031909    158.49884    904.51416   -13.771958   0.27829292    171.99251            0 
[...]
  941500       941498    49.940671    1.0424472     16845903  0.001581395    163.57929    907.74869   -11.453371   0.31288324    174.71978            0 
  942000       941998    49.982496    1.0168718     16836467 0.0015822812    165.20124    909.99388   -9.7557663   0.33234849    174.62466            0 
  942500       942498    49.989391    1.0068527     16804448 0.0015852961    164.61355    909.50894   -10.358211   0.32428175    174.64748            0 
  943000       942998    50.010587   0.99822921     16758713 0.0015896224    162.41443    907.62566   -12.601185   0.31195427    174.70366            0 
  943500       943498     50.01708   0.96816169     16779844 0.0015876206    164.03641     909.3444   -10.860716   0.31002828     174.5871            0 
  944000       943998    50.020711   0.98879778     16789715 0.0015866872      164.255    909.61708   -10.713532   0.32365657    174.64487            0 
  944500       944498    49.993073    1.0229277     16806404 0.0015851116    162.06613    907.01638   -12.931109   0.31415375    174.68308            0 
  945000       944998    49.990323   0.99235023     16845457 0.0015814369    163.21146    908.12074   -11.578616   0.31852092    174.47156            0 
  945500       945498     50.02379   0.98675556     16834381 0.0015824773    165.14498    910.55295   -9.8116746   0.33298999    174.62366            0 
  946000       945998     49.99127   0.97551049     16798226 0.0015858833    165.54404    910.46744    -9.371442    0.3211403    174.59435            0 
  946500       946498    50.049197     1.006768     16738663 0.0015915265    163.74594     909.5325    -11.26023    0.3162426    174.68993            0 
  947000       946998    49.951947   0.98657139     16756844 0.0015897997    164.97649    909.31393   -10.112582   0.33336116    174.75572            0 
  947500       947498     49.95325    1.0207688     16771774 0.0015883845     165.5339    909.89074   -9.4387803   0.31241581    174.66026            0 
  948000       947998    49.980836    1.0112087     16809281 0.0015848403    165.13865    909.90655   -9.8983352   0.33052416    174.70646            0 
  948500       948498    50.000686   0.99578857     16835723 0.0015823512    166.47996    911.54366   -8.5553103   0.34073916    174.69453            0 
  949000       948998    50.027296   0.98700042     16819380 0.0015838887    164.35746    909.81767   -10.524967   0.30517852    174.57725            0 
  949500       949498    49.910079    1.0327681     16810011 0.0015847715    164.69741    908.41097   -10.336572   0.33765776    174.69632            0 
  950000       949998     50.02213   0.97139254     16818244 0.0015839957    162.97168    908.35492   -12.012787   0.32403174    174.66043            0 
  950500       950498    49.991122    1.0006392     16831513  0.001582747    164.03769    908.95886   -10.991535    0.3026746    174.72655            0 
  951000       950998    50.015537   0.97411952     16870639 0.0015790763     165.5286    910.81359   -9.5807956   0.32873266    174.78067            0 
  951500       951498    50.003339   0.96768991     16924697 0.0015740327     164.9435    910.04672   -10.082081   0.32544068    174.70014            0 
  952000       951998    50.006484   0.99806922     16960208  0.001570737     166.3002    911.45029    -8.744545   0.31350909    174.73124            0 
  952500       952498    50.006844   0.96200144     16975850 0.0015692896    165.72574     910.8812   -9.3535882   0.32088097    174.75845            0 
  953000       952998     50.03085   0.96267515     16958392 0.0015709051    164.98802    910.50119   -9.9635652   0.31334295    174.63824            0 
  953500       953498    49.975809    1.0087347     16953950 0.0015713168    164.13061    908.82361   -10.784867   0.31932059    174.59616            0 
  954000       953998     50.00266   0.98975347     16986232 0.0015683305    165.53427    910.62738   -9.4583744   0.32196924    174.67067            0 
  954500       954498    49.991305    1.0077027     16985707  0.001568379    161.52104    906.44495   -13.457155   0.30662503    174.67157            0 
  955000       954998    49.994518   0.99585862     16972815 0.0015695702    161.99828    906.97007   -13.062888   0.31203643    174.74914            0 
  955500       955498    50.052503   0.96183729     16924056 0.0015740923    161.77251    907.60834   -13.320573   0.30170504    174.79137            0 
  956000       955998     49.99543    1.0043443     16868352 0.0015792904    160.14328    905.12865   -14.814093   0.29484077    174.66253            0 
  956500       956498    49.970417    1.0432787     16846252 0.0015813622      162.766    907.37866   -12.197644   0.31440915    174.64923            0 
  957000       956998    49.981286    1.0243137     16828475 0.0015830327    164.25652    909.03114   -10.727694   0.32854654    174.65566            0 
  957500       957498    49.985392    1.0483068     16781309  0.001587482    161.50243    906.33822   -13.375421   0.30312277    174.57472            0 
  958000       957998    49.981131    1.0049392     16808169 0.0015849452    165.74671    910.51902   -9.3061426   0.30970145    174.74315            0 
  958500       958498    50.008111     1.043009     16780150 0.0015875916    162.03008    907.20441   -13.012312   0.30634924    174.73604            0 
  959000       958998     49.94724    1.0293017     16813560 0.0015844369    163.11539    907.38269   -11.972509   0.30682429    174.78108            0 
  959500       959498    49.949842    1.0320846     16838297 0.0015821093    163.22023    907.52629   -11.903211   0.32028263    174.80316            0 
  960000       959998    50.009072   0.98921438     16863688 0.0015797271    162.63542    907.82407   -12.293834   0.31763809    174.61161            0 
  960500       960498    50.000055    1.0206762     16853887 0.0015806458     161.5567    906.61099    -13.49547   0.30143729    174.75073            0 
  961000       960998    49.963416   0.98986797     16834569 0.0015824596    164.13681    908.64513   -10.858901   0.32425259    174.67146            0 
  961500       961498    50.025548     1.021897     16789416 0.0015867155    160.60027    906.03444   -14.348064   0.31134571    174.63699            0 
  962000       961998    49.989354   0.99065706     16818105 0.0015840088    161.85382    906.74865   -13.057213    0.3134816    174.59755            0 
  962500       962498    49.999115    1.0250478     16805505 0.0015851964    162.11056    907.15084   -12.988974   0.32235035    174.77718            0 
  963000       962998    50.012276    1.0031013     16798797 0.0015858293    163.54566    908.78206   -11.626107     0.300451    174.87132            0 
  963500       963498    50.008231   0.99480815     16791325  0.001586535     161.7551    906.93122   -13.259438   0.31326757    174.70127            0 
  964000       963998    50.014981   0.98489828     16767234 0.0015888145    162.17995    907.45666   -12.677362   0.31757164    174.53974            0 
  964500       964498    50.013587   0.98338416     16770881 0.0015884691    163.37931    908.63524   -11.491386   0.31475599    174.55594            0 
  965000       964998     50.00094    1.0386267     16772834 0.0015882841    161.96235    907.02982    -13.12437   0.32105162    174.76567            0 
  965500       965498    50.017829    1.0077951     16825413 0.0015833208    163.77911    909.09825   -11.198128    0.3199214    174.65732            0 
  966000       965998    49.973864    1.0001794     16840107 0.0015819392    165.07589     909.7399   -9.9188275   0.31887066    174.67584            0 
  966500       966498    50.004949     1.008789     16828446 0.0015830354    163.69278    908.82001   -11.313269   0.30495135     174.7011            0 
  967000       966998    49.951916     1.018909     16872168 0.0015789332    163.54454    907.88151   -11.544258   0.33452387    174.75428            0 
  967500       967498    49.957829   0.98194532     16939578 0.0015726499    164.05264    908.47772   -11.170539   0.30615664    174.91702            0 
  968000       967998    49.979613   0.98646214     16960320 0.0015707266    165.79985    910.54953   -9.1641794    0.3098457    174.65418            0 
  968500       968498    50.025491   0.97582873     16965548 0.0015702426    163.54172    908.97503   -11.367034    0.3238528     174.5849            0 
  969000       968998    50.014331   0.99203304     16966762 0.0015701302    164.04686    909.31388    -10.95532   0.32307548    174.67911            0 
  969500       969498    49.997359   0.96061073     16978950 0.0015690032    165.56875    910.58286   -9.4333405    0.3171576    174.68493            0 
  970000       969998    50.009312   0.95209412     16967343 0.0015700764    165.52628    910.71851   -9.6248685   0.31366575    174.83748            0 
  970500       970498    50.025112   0.96134739     16936251 0.0015729588    165.48331    910.91097   -9.6932237   0.31119618    174.86534            0 
  971000       970998    49.975086    1.0027859     16881847 0.0015780279    164.62299    909.30522    -10.49709   0.32790472    174.79218            0 
  971500       971498    49.954527   0.98978438     16840676 0.0015818857     164.9087    909.28458    -10.18845    0.3333908    174.76376            0 
  972000       971998    49.972736    1.0091993     16831738 0.0015827258    165.64787    910.29509   -9.4600486   0.31884029    174.78908            0 
  972500       972498    49.986008   0.97616773     16860750 0.0015800024    165.19983    910.04481   -9.7463466   0.33485838    174.61132            0 
  973000       972998    49.977664   0.98317791     16901711 0.0015761733    165.27834    909.99898   -9.6044166   0.31636603    174.56639            0 
  973500       973498    50.004393   0.95659295     16968878 0.0015699345    165.96963    911.08856   -9.1322757   0.30093461    174.80097            0 
  974000       973998    49.942061   0.98448922     16988904 0.0015680838    167.15979     911.3499   -8.0991748   0.34049354    174.91847            0 
  974500       974498    49.913829    1.0189544     16969910  0.001569839    166.45392    910.22335   -8.7286751   0.33080828    174.85179            0 
  975000       974998      50.0492    1.0065801     16957692   0.00157097    164.62263    910.40923   -10.387862   0.32601114    174.68448            0 
  975500       975498    50.015874   0.96563562     16947154 0.0015719469    163.14005    908.43007     -11.8827   0.33395742     174.6888            0 
  976000       975998    49.979266   0.97536918     16919773 0.0015744907    162.24033    906.98484   -12.737484   0.29883899    174.67897            0 
  976500       976498    50.027649   0.98605233     16881087  0.001578099    163.35251    908.81798   -11.715144    0.3216794    174.74598            0 
  977000       976998    50.027141   0.96792308     16815061 0.0015842955    161.56684    907.02474   -13.431013   0.32215473     174.6757            0 
  977500       977498    50.046227   0.99030634     16775127 0.0015880671    159.76552    905.50782   -15.219194   0.31629288    174.66842            0 
  978000       977998    50.028069   0.97225562     16777221 0.0015878688    162.64065    908.11238   -12.365994   0.33408866    174.67256            0 
  978500       978498    50.018169   0.98381227     16750573 0.0015903949    163.68306    909.00727   -11.400892   0.30593697    174.77801            0 
  979000       978998    49.982377    1.0061843     16746805 0.0015907527    162.79293     907.5838   -12.335233   0.30997403    174.81819            0 
  979500       979498    50.009759   0.99828407     16791501 0.0015865184    162.39828    907.59718   -12.626757   0.33743356    174.68761            0 
  980000       979998    50.010711    1.0401011     16827378 0.0015831359    163.06196    908.27504   -11.990746   0.30356468    174.74914            0 
  980500       980498    49.955299     1.050469     16899846 0.0015763473    165.86716    910.25453   -9.1485004   0.33292635    174.68273            0 
  981000       980998     49.93688    1.0105155     16973642 0.0015694938     166.7374    910.85032   -8.3881843   0.33128082     174.7943            0 
  981500       981498    50.058455    0.9943535     16979135 0.0015689861    165.20783    911.13235   -9.6555066   0.30707194    174.55626            0 
  982000       981998     50.00023    1.0036469     16969831 0.0015698463    167.27455    912.33144   -7.9632456   0.32616794    174.91162            0 
  982500       982498    49.964707    1.0425357     16900171 0.0015763169    166.20937    910.73694   -9.0901109   0.32646698    174.97301            0 
  983000       982998    50.003663    0.9649159     16869936 0.0015791421    165.73619    910.84424   -9.1315745   0.31984951    174.54792            0 
  983500       983498    49.985809    1.0317533     16804169 0.0015853225    166.57661    911.41863   -8.5501014    0.3182716    174.80844            0 
  984000       983998    50.046784    1.0346686     16755343 0.0015899421    164.62639      910.377   -10.558823   0.30559623    174.87962            0 
  984500       984498    49.958055    1.0338081     16733681 0.0015920004    166.23068    910.65913    -8.849457   0.32781178    174.75233            0 
  985000       984998    49.937691     1.080737     16695752  0.001595617    164.50503    908.63003   -10.510472   0.31934824    174.69615            0 
  985500       985498    49.948801    1.0578109     16711126  0.001594149    165.40348    909.69404   -9.7820234   0.32094359    174.86456            0 
  986000       985998    50.026471    1.0156313     16740846 0.0015913189    165.48663    910.93455   -9.6859604    0.3049205    174.86767            0 
  986500       986498    49.983831    1.0257043     16773295 0.0015882405    165.27834    910.09088   -9.8893803   0.31935068    174.84837            0 
  987000       986998    50.009897    1.0105142     16823453 0.0015835052    164.53621    909.73716   -10.459543   0.31480947    174.68095            0 
  987500       987498    50.020493    1.0286092     16835681 0.0015823551    163.44045    908.79929   -11.470038   0.31227379    174.59821            0 
  988000       987998    50.023937    1.0003525     16844781 0.0015815003    162.52944    907.93961   -12.523173   0.32262692    174.72999            0 
  988500       988498    49.982012   0.98735939     16884705 0.0015777608    165.88328    910.66872   -9.4170289    0.3073332    174.99298            0 
  989000       988998    49.967589   0.99309489     16888914 0.0015773676    165.53654    910.10706   -9.7784504   0.30266052    175.01233            0 
  989500       989498    50.026297   0.97981145     16883295 0.0015778926    164.66847    910.11379   -10.288902   0.31842035    174.63895            0 
  990000       989998     50.05849    0.9955349     16813071  0.001584483    160.89632    906.82136    -13.98734    0.3149173    174.56874            0 
  990500       990498     50.01824   0.96259118     16749183 0.0015905269    161.24354    906.56882   -13.792538   0.33459327    174.70149            0 
  991000       990998    49.968956    1.0084079     16687283 0.0015964268    162.68242    907.27331   -12.477607   0.31302358      174.847            0 
  991500       991498    50.029332    0.9718704     16670991 0.0015979869    162.53059    908.02114   -12.540829    0.3074725    174.76395            0 
  992000       991998    50.032977   0.96575088     16683460 0.0015967927    163.78856    909.33342   -11.246338    0.3229463    174.71195            0 
  992500       992498    50.034462    1.0031114     16677668 0.0015973471    163.10262    908.66962   -11.896097   0.30637812    174.69234            0 
  993000       992998    50.025222   0.98631674     16737015 0.0015916832    162.57567    908.00497   -12.617772   0.33020076    174.86324            0 
  993500       993498    50.013647   0.97839167     16790722 0.0015865921    164.13116    909.38799   -11.112581   0.33381373    174.90993            0 
  994000       993998    50.028137    0.9592123     16809661 0.0015848044    164.72907    910.20181   -10.319324   0.31482978    174.73356            0 
  994500       994498     50.04754   0.95361903     16783193 0.0015873038    164.86824    910.63011   -10.141174   0.33043402    174.67898            0 
  995000       994998    50.040361   0.95131032     16756095 0.0015898708    164.51406    910.16894   -10.509591   0.31049784    174.71315            0 
  995500       995498    49.999784   0.97245436     16724263 0.0015928968    165.21218    910.26243   -9.9544549    0.3381198    174.82851            0 
  996000       995998    49.960769     1.001975     16682767 0.0015968589     164.7068    909.17569   -10.604436   0.32949681    174.98174            0 
  996500       996498    50.000279   0.96726549     16673698 0.0015977276    167.00773    912.06535   -8.0832733   0.31970221     174.7713            0 
  997000       996998    49.997209   0.98967837     16667856 0.0015982875    166.40836    911.42025   -8.6984161   0.35037826    174.75639            0 
  997500       997498    49.985819   0.99822638     16708995 0.0015943524    167.77418    912.61633   -7.2689057   0.32404912    174.71903            0 
  998000       997998    50.017205    1.0114328     16773700 0.0015882021    165.69304    911.00289   -9.3218946   0.32708136    174.68786            0 
  998500       998498    50.032861   0.95593311     16871152 0.0015790283    167.69286      913.236   -7.4894735   0.33801836    174.84432            0 
  999000       998998    50.035868   0.96691289     16887434 0.0015775058    167.78987    913.37781   -7.4344256   0.31268098    174.91161            0 
  999500       999498    50.009784   0.97145637     16888733 0.0015773845    167.47529    912.67455   -7.5543592   0.32590994    174.70374            0 
 1000000       999998    50.014954   0.96099053     16885006 0.0015777327    168.24465    913.52095   -6.7514575   0.33469657    174.66141            0 
 1000002      1000000    50.004262   0.95225819     16884821   0.00157775    168.33903    913.45602   -6.8105075   0.32442631    174.82511            0 
Loop time of 2891.51 on 8 procs for 1000000 steps with 5000 atoms

Performance: 29.881 ns/day, 0.803 hours/ns, 345.840 timesteps/s
100.0% CPU use with 8 MPI tasks x no OpenMP threads

MPI task timing breakdown:
Section |  min time  |  avg time  |  max time  |%varavg| %total
---------------------------------------------------------------
Pair    | 100.98     | 102.52     | 103.79     |   8.1 |  3.55
Bond    | 83.379     | 84.44      | 85.689     |   9.0 |  2.92
Kspace  | 527.6      | 529.46     | 531.57     |   6.4 | 18.31
Neigh   | 9.4908     | 9.5058     | 9.5198     |   0.3 |  0.33
Comm    | 21.5       | 236.45     | 272.02     | 529.0 |  8.18
Output  | 0.93338    | 0.93361    | 0.93376    |   0.0 |  0.03
Modify  | 1124.9     | 1267.5     | 2134.1     | 921.0 | 43.84
Other   |            | 660.7      |            |       | 22.85

Nlocal:        625.000 ave         696 max         550 min
Histogram: 1 1 0 0 0 4 0 0 1 1
Nghost:        451.500 ave         506 max         395 min
Histogram: 1 0 1 1 1 1 1 1 0 1
Neighs:        2082.38 ave        2372 max        1924 min
Histogram: 2 2 0 0 2 0 1 0 0 1

Total # of neighbors = 16659
Ave neighs/atom = 3.3318000
Ave special neighs/atom = 4.0000000
Neighbor list builds = 26732
Dangerous builds = 0

write_data   system_after_npt.data
System init for write_data ...
PPPM initialization ...
  using 12-bit tables for long-range coulomb (../kspace.cpp:340)
  G vector (1/distance) = 0.072053236
  grid = 15 15 15
  stencil order = 5
  estimated absolute RMS force accuracy = 0.03744523
  estimated relative force accuracy = 0.0001127652
  using double precision KISS FFT
  3d grid and FFT values/proc = 2197 512
Total wall time: 0:48:12
