LAMMPS data file via write_data, version 29 Sep 2021, timestep = 2

5000 atoms
2 atom types
4000 bonds
1 bond types
6000 angles
1 angle types

0 103.5 xlo xhi
0 103.5 ylo yhi
0 103.5 zlo zhi

Masses

1 12.011
2 1.008

Pair Coeffs # lj/cut/coul/long

1 0.066 3.5
2 0.03 2.5

Bond Coeffs # harmonic

1 340 1.09

Angle Coeffs # harmonic

1 33 107.8

Atoms # full

2779 556 2 0.06 51.23616956391128 50.860011639102346 51.386668160107185 0 0 0
2 1 2 0.06 2.3698172144809793e-06 0 1.0899994887185418 0 0 0
2226 446 1 -0.24 51.74999410906421 41.4 41.39999441665823 0 0 0
7 2 2 0.06 10.350002473200728 0 1.089999492486783 0 0 0
2176 436 1 -0.24 51.74999406041309 31.049999999999997 41.399994386458836 0 0 0
12 3 2 0.06 20.700002369817216 0 1.0899994887185427 0 0 0
2126 426 1 -0.24 51.74999410906421 20.7 41.39999441665823 0 0 0
17 4 2 0.06 31.050002473200724 0 1.0899994924867833 0 0 0
2076 416 1 -0.24 51.74999406041309 10.35 41.399994386458836 0 0 0
22 5 2 0.06 41.400002369817216 0 1.0899994887185427 0 0 0
2774 555 2 0.06 40.886169618379554 50.86001168867306 51.386668178773434 0 0 0
52 11 2 0.06 2.370419161892938e-06 10.35 1.0899994924884595 0 0 0
2026 406 1 -0.24 51.74999410906421 0 41.39999441665823 0 0 0
57 12 2 0.06 10.350002476219569 10.35 1.0899994960984951 0 0 0
1726 346 1 -0.24 51.74999410919636 41.4 31.049994196752106 0 0 0
62 13 2 0.06 20.70000237041916 10.35 1.0899994924884604 0 0 0
1676 336 1 -0.24 51.74999406225092 31.049999999999997 31.049994164827936 0 0 0
67 14 2 0.06 31.050002476219564 10.35 1.0899994960984953 0 0 0
1626 326 1 -0.24 51.74999410919636 20.7 31.049994196752106 0 0 0
72 15 2 0.06 41.400002370419166 10.35 1.0899994924884604 0 0 0
2769 554 2 0.06 30.536169563911283 50.860011639102346 51.386668160107185 0 0 0
102 21 2 0.06 2.369817214546619e-06 20.7 1.0899994887185427 0 0 0
1576 316 1 -0.24 51.74999406225092 10.35 31.049994164827936 0 0 0
107 22 2 0.06 10.350002473200728 20.7 1.089999492486784 0 0 0
1526 306 1 -0.24 51.74999410919636 0 31.049994196752106 0 0 0
112 23 2 0.06 20.700002369817216 20.7 1.0899994887185436 0 0 0
1226 246 1 -0.24 51.74999410906422 41.4 20.69999441665823 0 0 0
117 24 2 0.06 31.050002473200724 20.7 1.0899994924867842 0 0 0
1176 236 1 -0.24 51.74999406041309 31.049999999999997 20.69999438645884 0 0 0
122 25 2 0.06 41.400002369817216 20.7 1.0899994887185436 0 0 0
2764 553 2 0.06 20.18616961837955 50.86001168867306 51.386668178773434 0 0 0
152 31 2 0.06 2.37041916190666e-06 31.049999999999997 1.08999949248846 0 0 0
1126 226 1 -0.24 51.74999410906422 20.7 20.69999441665823 0 0 0
157 32 2 0.06 10.350002476219569 31.049999999999997 1.0899994960984956 0 0 0
1076 216 1 -0.24 51.74999406041309 10.35 20.69999438645884 0 0 0
162 33 2 0.06 20.70000237041916 31.049999999999997 1.0899994924884608 0 0 0
1026 206 1 -0.24 51.74999410906421 0 20.699994416658228 0 0 0
167 34 2 0.06 31.050002476219564 31.049999999999997 1.0899994960984958 0 0 0
726 146 1 -0.24 51.74999410919636 41.4 10.34999419675211 0 0 0
172 35 2 0.06 41.400002370419166 31.049999999999997 1.0899994924884608 0 0 0
2759 552 2 0.06 9.836169563911282 50.860011639102346 51.386668160107185 0 0 0
202 41 2 0.06 2.369817214511004e-06 41.4 1.0899994887185427 0 0 0
676 136 1 -0.24 51.74999406225092 31.049999999999997 10.349994164827939 0 0 0
207 42 2 0.06 10.350002473200728 41.4 1.089999492486784 0 0 0
626 126 1 -0.24 51.74999410919636 20.7 10.349994196752109 0 0 0
212 43 2 0.06 20.700002369817216 41.4 1.0899994887185436 0 0 0
576 116 1 -0.24 51.74999406225092 10.35 10.349994164827939 0 0 0
217 44 2 0.06 31.050002473200724 41.4 1.0899994924867842 0 0 0
526 106 1 -0.24 51.74999410919636 0 10.349994196752109 0 0 0
222 45 2 0.06 41.400002369817216 41.4 1.0899994887185436 0 0 0
2730 546 2 0.06 51.23616954026193 42.28998817700473 51.38666814399139 0 0 0
502 101 2 0.06 2.370814255187195e-06 0 11.439999607819216 0 0 0
503 101 2 0.06 1.02766317575594 0 9.986669829573772 0 0 0
506 102 1 -0.24 10.34999410919636 0 10.349994196752109 0 0 0
507 102 2 0.06 10.350002472325793 0 11.439999603574297 0 0 0
508 102 2 0.06 11.377663331516503 0 9.986669902181227 0 0 0
510 102 2 0.06 9.836169540261931 0.8899881770047341 9.986668143991393 0 0 0
511 103 1 -0.24 20.699994260471342 0 10.349994230673708 0 0 0
512 103 2 0.06 20.700002370814257 0 11.439999607819216 0 0 0
513 103 2 0.06 21.72766317575594 0 9.986669829573772 0 0 0
515 103 2 0.06 20.186169599690267 0.8899881226741423 9.986668161239312 0 0 0
516 104 1 -0.24 31.049994109196355 2.797251967162919e-16 10.349994196752109 0 0 0
517 104 2 0.06 31.05000247232579 0 11.439999603574297 0 0 0
518 104 2 0.06 32.0776633315165 0 9.986669902181227 0 0 0
520 104 2 0.06 30.536169540261927 0.8899881770047342 9.986668143991391 0 0 0
521 105 1 -0.24 41.39999426047134 0 10.349994230673708 0 0 0
522 105 2 0.06 41.400002370814256 0 11.439999607819216 0 0 0
523 105 2 0.06 42.42766317575594 0 9.986669829573772 0 0 0
525 105 2 0.06 40.88616959969027 0.8899881226741423 9.986668161239312 0 0 0
530 106 2 0.06 51.23616954026193 0.8899881770047342 9.986668143991391 0 0 0
2729 546 2 0.06 51.23616954026193 40.51001182299527 51.38666814399139 0 0 0
552 111 2 0.06 2.3713774929990812e-06 10.35 11.439999603575624 0 0 0
553 111 2 0.06 1.0276631805719003 10.35 9.986669832993135 0 0 0
556 112 1 -0.24 10.349994062250916 10.35 10.349994164827939 0 0 0
557 112 2 0.06 10.35000247524625 10.35 11.439999599503874 0 0 0
558 112 2 0.06 11.377663327930604 10.35 9.986669905904465 0 0 0
559 112 2 0.06 9.836169563911282 9.460011639102346 9.986668160107184 0 0 0
560 112 2 0.06 9.836169563911282 11.239988360897653 9.986668160107184 0 0 0
561 113 1 -0.24 20.699994218071513 10.35 10.349994196372977 0 0 0
562 113 2 0.06 20.70000237137749 10.35 11.439999603575625 0 0 0
563 113 2 0.06 21.727663180571902 10.35 9.986669832993137 0 0 0
564 113 2 0.06 20.18616961837955 9.460011688673058 9.98666817877344 0 0 0
565 113 2 0.06 20.18616961837955 11.239988311326941 9.98666817877344 0 0 0
566 114 1 -0.24 31.049994062250917 10.35 10.349994164827939 0 0 0
567 114 2 0.06 31.05000247524625 10.35 11.439999599503874 0 0 0
568 114 2 0.06 32.0776633279306 10.35 9.986669905904465 0 0 0
569 114 2 0.06 30.536169563911283 9.460011639102346 9.986668160107184 0 0 0
570 114 2 0.06 30.536169563911283 11.239988360897653 9.986668160107184 0 0 0
571 115 1 -0.24 41.39999421807151 10.35 10.349994196372977 0 0 0
572 115 2 0.06 41.40000237137749 10.35 11.439999603575625 0 0 0
573 115 2 0.06 42.427663180571905 10.35 9.986669832993137 0 0 0
574 115 2 0.06 40.886169618379554 9.460011688673058 9.98666817877344 0 0 0
575 115 2 0.06 40.886169618379554 11.239988311326941 9.98666817877344 0 0 0
579 116 2 0.06 51.23616956391128 9.460011639102346 9.986668160107184 0 0 0
580 116 2 0.06 51.23616956391128 11.239988360897653 9.986668160107184 0 0 0
2725 545 2 0.06 40.88616959969027 42.28998812267414 51.386668161239314 0 0 0
602 121 2 0.06 2.3708142551982527e-06 20.7 11.439999607819216 0 0 0
603 121 2 0.06 1.027663175755941 20.7 9.986669829573772 0 0 0
606 122 1 -0.24 10.34999410919636 20.7 10.349994196752109 0 0 0
607 122 2 0.06 10.350002472325793 20.7 11.439999603574298 0 0 0
608 122 2 0.06 11.377663331516503 20.7 9.986669902181227 0 0 0
609 122 2 0.06 9.836169540261931 19.810011822995268 9.986668143991391 0 0 0
610 122 2 0.06 9.836169540261931 21.58998817700473 9.986668143991391 0 0 0
611 123 1 -0.24 20.699994260471342 20.7 10.34999423067371 0 0 0
612 123 2 0.06 20.700002370814257 20.7 11.439999607819217 0 0 0
613 123 2 0.06 21.727663175755943 20.7 9.986669829573772 0 0 0
614 123 2 0.06 20.186169599690267 19.810011877325856 9.986668161239312 0 0 0
615 123 2 0.06 20.186169599690267 21.589988122674143 9.986668161239312 0 0 0
616 124 1 -0.24 31.049994109196355 20.7 10.349994196752109 0 0 0
617 124 2 0.06 31.050002472325794 20.7 11.439999603574298 0 0 0
618 124 2 0.06 32.0776633315165 20.7 9.986669902181227 0 0 0
619 124 2 0.06 30.53616954026193 19.810011822995264 9.986668143991391 0 0 0
620 124 2 0.06 30.53616954026193 21.589988177004734 9.986668143991391 0 0 0
621 125 1 -0.24 41.39999426047134 20.7 10.34999423067371 0 0 0
622 125 2 0.06 41.400002370814256 20.7 11.439999607819217 0 0 0
623 125 2 0.06 42.42766317575594 20.7 9.986669829573772 0 0 0
624 125 2 0.06 40.88616959969027 19.810011877325856 9.986668161239312 0 0 0
625 125 2 0.06 40.88616959969027 21.589988122674143 9.986668161239312 0 0 0
629 126 2 0.06 51.23616954026193 19.810011822995264 9.986668143991391 0 0 0
630 126 2 0.06 51.23616954026193 21.589988177004734 9.986668143991391 0 0 0
2724 545 2 0.06 40.88616959969027 40.51001187732586 51.386668161239314 0 0 0
652 131 2 0.06 2.371377492969912e-06 31.049999999999997 11.439999603575624 0 0 0
653 131 2 0.06 1.0276631805719005 31.049999999999997 9.986669832993135 0 0 0
656 132 1 -0.24 10.349994062250918 31.049999999999997 10.349994164827939 0 0 0
657 132 2 0.06 10.35000247524625 31.049999999999997 11.439999599503874 0 0 0
658 132 2 0.06 11.377663327930604 31.049999999999997 9.986669905904465 0 0 0
659 132 2 0.06 9.836169563911282 30.160011639102343 9.986668160107184 0 0 0
660 132 2 0.06 9.836169563911282 31.93998836089765 9.986668160107184 0 0 0
661 133 1 -0.24 20.699994218071513 31.049999999999997 10.349994196372977 0 0 0
662 133 2 0.06 20.70000237137749 31.049999999999997 11.439999603575625 0 0 0
663 133 2 0.06 21.727663180571902 31.049999999999997 9.986669832993137 0 0 0
664 133 2 0.06 20.18616961837955 30.160011688673055 9.98666817877344 0 0 0
665 133 2 0.06 20.18616961837955 31.93998831132694 9.98666817877344 0 0 0
666 134 1 -0.24 31.049994062250917 31.049999999999997 10.349994164827939 0 0 0
667 134 2 0.06 31.05000247524625 31.049999999999997 11.439999599503874 0 0 0
668 134 2 0.06 32.0776633279306 31.049999999999997 9.986669905904465 0 0 0
669 134 2 0.06 30.536169563911283 30.160011639102343 9.986668160107184 0 0 0
670 134 2 0.06 30.536169563911283 31.93998836089765 9.986668160107184 0 0 0
671 135 1 -0.24 41.39999421807151 31.049999999999997 10.349994196372977 0 0 0
672 135 2 0.06 41.40000237137749 31.049999999999997 11.439999603575625 0 0 0
673 135 2 0.06 42.427663180571905 31.049999999999997 9.986669832993137 0 0 0
674 135 2 0.06 40.886169618379554 30.160011688673055 9.98666817877344 0 0 0
675 135 2 0.06 40.886169618379554 31.93998831132694 9.98666817877344 0 0 0
679 136 2 0.06 51.23616956391128 30.160011639102343 9.986668160107184 0 0 0
680 136 2 0.06 51.23616956391128 31.93998836089765 9.986668160107184 0 0 0
2723 545 2 0.06 42.42766317575594 41.4 51.386669829573776 0 0 0
702 141 2 0.06 2.3708142551982616e-06 41.4 11.439999607819216 0 0 0
703 141 2 0.06 1.027663175755941 41.4 9.986669829573772 0 0 0
706 142 1 -0.24 10.34999410919636 41.4 10.349994196752109 0 0 0
707 142 2 0.06 10.350002472325793 41.4 11.439999603574298 0 0 0
708 142 2 0.06 11.377663331516503 41.4 9.986669902181227 0 0 0
709 142 2 0.06 9.836169540261931 40.51001182299527 9.986668143991391 0 0 0
710 142 2 0.06 9.836169540261931 42.28998817700473 9.986668143991391 0 0 0
711 143 1 -0.24 20.699994260471342 41.4 10.34999423067371 0 0 0
712 143 2 0.06 20.700002370814257 41.4 11.439999607819217 0 0 0
713 143 2 0.06 21.727663175755943 41.4 9.986669829573772 0 0 0
714 143 2 0.06 20.186169599690267 40.51001187732586 9.986668161239312 0 0 0
715 143 2 0.06 20.186169599690267 42.28998812267414 9.986668161239312 0 0 0
716 144 1 -0.24 31.049994109196355 41.4 10.349994196752109 0 0 0
717 144 2 0.06 31.050002472325794 41.4 11.439999603574298 0 0 0
718 144 2 0.06 32.0776633315165 41.4 9.986669902181227 0 0 0
719 144 2 0.06 30.536169540261927 40.51001182299527 9.986668143991391 0 0 0
720 144 2 0.06 30.536169540261927 42.28998817700473 9.986668143991391 0 0 0
721 145 1 -0.24 41.399994260471345 41.4 10.34999423067371 0 0 0
722 145 2 0.06 41.400002370814256 41.4 11.439999607819217 0 0 0
723 145 2 0.06 42.42766317575594 41.4 9.986669829573772 0 0 0
724 145 2 0.06 40.88616959969027 40.51001187732586 9.986668161239312 0 0 0
725 145 2 0.06 40.88616959969027 42.28998812267414 9.986668161239312 0 0 0
729 146 2 0.06 51.23616954026193 40.51001182299527 9.986668143991391 0 0 0
730 146 2 0.06 51.23616954026193 42.28998817700473 9.986668143991391 0 0 0
759 152 2 0.06 9.836169563911282 50.860011639102346 9.986668160107184 0 0 0
764 153 2 0.06 20.18616961837955 50.86001168867306 9.98666817877344 0 0 0
769 154 2 0.06 30.536169563911283 50.860011639102346 9.986668160107184 0 0 0
774 155 2 0.06 40.886169618379554 50.86001168867306 9.98666817877344 0 0 0
779 156 2 0.06 51.23616956391128 50.860011639102346 9.986668160107184 0 0 0
2720 544 2 0.06 30.536169540261927 42.28998817700473 51.38666814399139 0 0 0
1002 201 2 0.06 2.3698172143151764e-06 0 21.78999948871854 0 0 0
1003 201 2 0.06 1.0276631060119963 0 20.336669802296477 0 0 0
1006 202 1 -0.24 10.349994109064214 0 20.69999441665823 0 0 0
1007 202 2 0.06 10.350002473200728 0 21.789999492486782 0 0 0
1008 202 2 0.06 11.377663267962234 0 20.336669873252813 0 0 0
1010 202 2 0.06 9.836169571544932 0.8899881160001648 20.336668113555977 0 0 0
1011 203 1 -0.24 20.699994262349126 0 20.699994448689278 0 0 0
1012 203 2 0.06 20.700002369817216 0 21.78999948871854 0 0 0
1013 203 2 0.06 21.727663106011995 0 20.336669802296477 0 0 0
1015 203 2 0.06 20.186169634236727 0.8899880612681675 20.33666813485325 0 0 0
1016 204 1 -0.24 31.04999410906421 0 20.699994416658228 0 0 0
1017 204 2 0.06 31.050002473200724 0 21.789999492486782 0 0 0
1018 204 2 0.06 32.07766326796223 0 20.336669873252813 0 0 0
1020 204 2 0.06 30.536169571544928 0.8899881160001651 20.336668113555977 0 0 0
1021 205 1 -0.24 41.399994262349125 0 20.699994448689278 0 0 0
1022 205 2 0.06 41.400002369817216 0 21.78999948871854 0 0 0
1023 205 2 0.06 42.427663106012 0 20.336669802296477 0 0 0
1025 205 2 0.06 40.88616963423672 0.8899880612681675 20.33666813485325 0 0 0
1030 206 2 0.06 51.236169571544934 0.8899881160001653 20.336668113555977 0 0 0
2719 544 2 0.06 30.536169540261927 40.51001182299527 51.38666814399139 0 0 0
1052 211 2 0.06 2.3704191621137706e-06 10.35 21.78999949248846 0 0 0
1053 211 2 0.06 1.0276631105214866 10.35 20.336669802030176 0 0 0
1056 212 1 -0.24 10.349994060413083 10.35 20.699994386458837 0 0 0
1057 212 2 0.06 10.350002476219569 10.35 21.789999496098496 0 0 0
1058 212 2 0.06 11.377663263822653 10.35 20.33666987347791 0 0 0
1059 212 2 0.06 9.836169596269038 9.460011693645363 20.336668126778466 0 0 0
1060 212 2 0.06 9.836169596269038 11.239988306354636 20.336668126778466 0 0 0
1061 213 1 -0.24 20.699994218357638 10.35 20.69999441627259 0 0 0
1062 213 2 0.06 20.70000237041916 10.35 21.78999949248846 0 0 0
1063 213 2 0.06 21.727663110521487 10.35 20.336669802030176 0 0 0
1064 213 2 0.06 20.186169653862276 9.460011743466458 20.336668149360495 0 0 0
1065 213 2 0.06 20.186169653862276 11.239988256533541 20.336668149360495 0 0 0
1066 214 1 -0.24 31.04999406041308 10.35 20.69999438645884 0 0 0
1067 214 2 0.06 31.050002476219564 10.35 21.789999496098496 0 0 0
1068 214 2 0.06 32.07766326382265 10.35 20.33666987347791 0 0 0
1069 214 2 0.06 30.536169596269033 9.460011693645363 20.336668126778466 0 0 0
1070 214 2 0.06 30.536169596269033 11.239988306354636 20.336668126778466 0 0 0
1071 215 1 -0.24 41.399994218357634 10.35 20.69999441627259 0 0 0
1072 215 2 0.06 41.400002370419166 10.35 21.78999949248846 0 0 0
1073 215 2 0.06 42.427663110521486 10.35 20.336669802030176 0 0 0
1074 215 2 0.06 40.88616965386227 9.460011743466458 20.336668149360495 0 0 0
1075 215 2 0.06 40.88616965386227 11.239988256533541 20.336668149360495 0 0 0
1079 216 2 0.06 51.23616959626904 9.460011693645363 20.336668126778466 0 0 0
1080 216 2 0.06 51.23616959626904 11.239988306354636 20.336668126778466 0 0 0
2718 544 2 0.06 32.0776633315165 41.4 51.38666990218123 0 0 0
1102 221 2 0.06 2.369817214307337e-06 20.7 21.78999948871854 0 0 0
1103 221 2 0.06 1.027663106011997 20.7 20.336669802296477 0 0 0
1106 222 1 -0.24 10.349994109064214 20.7 20.69999441665823 0 0 0
1107 222 2 0.06 10.350002473200728 20.7 21.789999492486782 0 0 0
1108 222 2 0.06 11.377663267962234 20.7 20.336669873252813 0 0 0
1109 222 2 0.06 9.836169571544932 19.810011883999834 20.336668113555977 0 0 0
1110 222 2 0.06 9.836169571544932 21.589988116000164 20.336668113555977 0 0 0
1111 223 1 -0.24 20.69999426234913 20.7 20.699994448689278 0 0 0
1112 223 2 0.06 20.700002369817216 20.7 21.78999948871854 0 0 0
1113 223 2 0.06 21.727663106012 20.7 20.336669802296477 0 0 0
1114 223 2 0.06 20.186169634236727 19.810011938731833 20.33666813485325 0 0 0
1115 223 2 0.06 20.186169634236727 21.589988061268166 20.33666813485325 0 0 0
1116 224 1 -0.24 31.04999410906421 20.7 20.69999441665823 0 0 0
1117 224 2 0.06 31.050002473200724 20.7 21.789999492486782 0 0 0
1118 224 2 0.06 32.07766326796223 20.7 20.336669873252813 0 0 0
1119 224 2 0.06 30.53616957154493 19.810011883999834 20.336668113555977 0 0 0
1120 224 2 0.06 30.53616957154493 21.589988116000164 20.336668113555977 0 0 0
1121 225 1 -0.24 41.399994262349125 20.7 20.699994448689278 0 0 0
1122 225 2 0.06 41.400002369817216 20.7 21.78999948871854 0 0 0
1123 225 2 0.06 42.427663106012 20.7 20.336669802296477 0 0 0
1124 225 2 0.06 40.88616963423673 19.810011938731833 20.33666813485325 0 0 0
1125 225 2 0.06 40.88616963423673 21.589988061268166 20.33666813485325 0 0 0
1129 226 2 0.06 51.236169571544934 19.810011883999834 20.336668113555977 0 0 0
1130 226 2 0.06 51.236169571544934 21.589988116000164 20.336668113555977 0 0 0
2715 543 2 0.06 20.186169599690267 42.28998812267414 51.386668161239314 0 0 0
1152 231 2 0.06 2.3704191621152533e-06 31.049999999999997 21.78999949248846 0 0 0
1153 231 2 0.06 1.0276631105214868 31.049999999999997 20.336669802030176 0 0 0
1156 232 1 -0.24 10.349994060413083 31.049999999999997 20.69999438645884 0 0 0
1157 232 2 0.06 10.350002476219569 31.049999999999997 21.789999496098496 0 0 0
1158 232 2 0.06 11.377663263822653 31.049999999999997 20.33666987347791 0 0 0
1159 232 2 0.06 9.836169596269038 30.160011693645362 20.336668126778466 0 0 0
1160 232 2 0.06 9.836169596269038 31.939988306354632 20.336668126778466 0 0 0
1161 233 1 -0.24 20.699994218357638 31.049999999999997 20.69999441627259 0 0 0
1162 233 2 0.06 20.70000237041916 31.049999999999997 21.78999949248846 0 0 0
1163 233 2 0.06 21.727663110521487 31.049999999999997 20.336669802030176 0 0 0
1164 233 2 0.06 20.186169653862276 30.160011743466455 20.3366681493605 0 0 0
1165 233 2 0.06 20.186169653862276 31.93998825653354 20.3366681493605 0 0 0
1166 234 1 -0.24 31.04999406041308 31.049999999999997 20.699994386458837 0 0 0
1167 234 2 0.06 31.050002476219564 31.049999999999997 21.789999496098496 0 0 0
1168 234 2 0.06 32.07766326382265 31.049999999999997 20.33666987347791 0 0 0
1169 234 2 0.06 30.536169596269033 30.160011693645362 20.336668126778463 0 0 0
1170 234 2 0.06 30.536169596269033 31.939988306354632 20.336668126778463 0 0 0
1171 235 1 -0.24 41.399994218357634 31.049999999999997 20.69999441627259 0 0 0
1172 235 2 0.06 41.400002370419166 31.049999999999997 21.78999949248846 0 0 0
1173 235 2 0.06 42.427663110521486 31.049999999999997 20.336669802030176 0 0 0
1174 235 2 0.06 40.88616965386227 30.160011743466455 20.3366681493605 0 0 0
1175 235 2 0.06 40.88616965386227 31.93998825653354 20.3366681493605 0 0 0
1179 236 2 0.06 51.23616959626904 30.160011693645362 20.336668126778463 0 0 0
1180 236 2 0.06 51.23616959626904 31.939988306354632 20.336668126778463 0 0 0
2714 543 2 0.06 20.186169599690267 40.51001187732586 51.386668161239314 0 0 0
1202 241 2 0.06 2.36981721427202e-06 41.4 21.78999948871854 0 0 0
1203 241 2 0.06 1.027663106011997 41.4 20.336669802296477 0 0 0
1206 242 1 -0.24 10.349994109064214 41.4 20.69999441665823 0 0 0
1207 242 2 0.06 10.350002473200728 41.4 21.789999492486782 0 0 0
1208 242 2 0.06 11.377663267962234 41.4 20.336669873252813 0 0 0
1209 242 2 0.06 9.836169571544932 40.51001188399983 20.336668113555977 0 0 0
1210 242 2 0.06 9.836169571544932 42.28998811600017 20.336668113555977 0 0 0
1211 243 1 -0.24 20.699994262349126 41.4 20.699994448689278 0 0 0
1212 243 2 0.06 20.700002369817216 41.4 21.78999948871854 0 0 0
1213 243 2 0.06 21.727663106012 41.4 20.336669802296477 0 0 0
1214 243 2 0.06 20.186169634236727 40.51001193873183 20.33666813485325 0 0 0
1215 243 2 0.06 20.186169634236727 42.28998806126817 20.33666813485325 0 0 0
1216 244 1 -0.24 31.04999410906421 41.4 20.69999441665823 0 0 0
1217 244 2 0.06 31.050002473200724 41.4 21.789999492486782 0 0 0
1218 244 2 0.06 32.07766326796223 41.4 20.336669873252813 0 0 0
1219 244 2 0.06 30.53616957154493 40.51001188399983 20.336668113555977 0 0 0
1220 244 2 0.06 30.53616957154493 42.28998811600017 20.336668113555977 0 0 0
1221 245 1 -0.24 41.399994262349125 41.4 20.699994448689278 0 0 0
1222 245 2 0.06 41.400002369817216 41.4 21.78999948871854 0 0 0
1223 245 2 0.06 42.427663106012 41.4 20.336669802296477 0 0 0
1224 245 2 0.06 40.88616963423673 40.51001193873183 20.33666813485325 0 0 0
1225 245 2 0.06 40.88616963423673 42.28998806126817 20.33666813485325 0 0 0
1229 246 2 0.06 51.236169571544934 40.51001188399983 20.336668113555977 0 0 0
1230 246 2 0.06 51.236169571544934 42.28998811600017 20.336668113555977 0 0 0
1259 252 2 0.06 9.836169596269038 50.86001169364536 20.336668126778466 0 0 0
1264 253 2 0.06 20.186169653862276 50.86001174346646 20.3366681493605 0 0 0
1269 254 2 0.06 30.536169596269037 50.86001169364536 20.336668126778463 0 0 0
1274 255 2 0.06 40.88616965386227 50.86001174346646 20.3366681493605 0 0 0
1279 256 2 0.06 51.23616959626904 50.86001169364536 20.336668126778463 0 0 0
2713 543 2 0.06 21.727663175755943 41.4 51.386669829573776 0 0 0
1502 301 2 0.06 2.3708142551632317e-06 3.467505563250301e-18 32.13999960781921 0 0 0
1503 301 2 0.06 1.0276631757559405 0 30.68666982957377 0 0 0
1506 302 1 -0.24 10.34999410919636 8.034385596394398e-17 31.049994196752106 0 0 0
1507 302 2 0.06 10.350002472325793 0 32.139999603574296 0 0 0
1508 302 2 0.06 11.377663331516503 0 30.686669902181226 0 0 0
1510 302 2 0.06 9.836169540261931 0.8899881770047342 30.686668143991387 0 0 0
1511 303 1 -0.24 20.699994260471342 0 31.049994230673704 0 0 0
1512 303 2 0.06 20.700002370814257 0 32.13999960781921 0 0 0
1513 303 2 0.06 21.72766317575594 0 30.68666982957377 0 0 0
1515 303 2 0.06 20.186169599690267 0.8899881226741425 30.68666816123931 0 0 0
1516 304 1 -0.24 31.049994109196355 3.9215827296696105e-16 31.049994196752106 0 0 0
1517 304 2 0.06 31.05000247232579 0 32.139999603574296 0 0 0
1518 304 2 0.06 32.0776633315165 0 30.686669902181226 0 0 0
1520 304 2 0.06 30.536169540261927 0.8899881770047344 30.686668143991387 0 0 0
1521 305 1 -0.24 41.39999426047134 0 31.049994230673704 0 0 0
1522 305 2 0.06 41.400002370814256 0 32.13999960781921 0 0 0
1523 305 2 0.06 42.42766317575594 0 30.68666982957377 0 0 0
1525 305 2 0.06 40.88616959969027 0.8899881226741425 30.68666816123931 0 0 0
1530 306 2 0.06 51.23616954026193 0.8899881770047344 30.686668143991387 0 0 0
2710 542 2 0.06 9.836169540261931 42.28998817700473 51.38666814399139 0 0 0
1552 311 2 0.06 2.37137749286553e-06 10.35 32.139999603575625 0 0 0
1553 311 2 0.06 1.0276631805719008 10.35 30.686669832993132 0 0 0
1556 312 1 -0.24 10.349994062250916 10.35 31.049994164827936 0 0 0
1557 312 2 0.06 10.35000247524625 10.35 32.139999599503874 0 0 0
1558 312 2 0.06 11.377663327930604 10.35 30.686669905904463 0 0 0
1559 312 2 0.06 9.836169563911282 9.460011639102346 30.686668160107182 0 0 0
1560 312 2 0.06 9.836169563911282 11.239988360897653 30.686668160107182 0 0 0
1561 313 1 -0.24 20.699994218071513 10.35 31.049994196372975 0 0 0
1562 313 2 0.06 20.70000237137749 10.35 32.139999603575625 0 0 0
1563 313 2 0.06 21.727663180571902 10.35 30.686669832993132 0 0 0
1564 313 2 0.06 20.18616961837955 9.460011688673058 30.686668178773438 0 0 0
1565 313 2 0.06 20.18616961837955 11.239988311326941 30.686668178773438 0 0 0
1566 314 1 -0.24 31.049994062250917 10.35 31.049994164827936 0 0 0
1567 314 2 0.06 31.05000247524625 10.35 32.139999599503874 0 0 0
1568 314 2 0.06 32.0776633279306 10.35 30.686669905904463 0 0 0
1569 314 2 0.06 30.536169563911283 9.460011639102346 30.686668160107182 0 0 0
1570 314 2 0.06 30.536169563911283 11.239988360897653 30.686668160107182 0 0 0
1571 315 1 -0.24 41.39999421807151 10.35 31.049994196372975 0 0 0
1572 315 2 0.06 41.40000237137749 10.35 32.139999603575625 0 0 0
1573 315 2 0.06 42.427663180571905 10.35 30.686669832993132 0 0 0
1574 315 2 0.06 40.886169618379554 9.460011688673058 30.686668178773438 0 0 0
1575 315 2 0.06 40.886169618379554 11.239988311326941 30.686668178773438 0 0 0
1579 316 2 0.06 51.23616956391128 9.460011639102346 30.686668160107182 0 0 0
1580 316 2 0.06 51.23616956391128 11.239988360897653 30.686668160107182 0 0 0
2709 542 2 0.06 9.836169540261931 40.51001182299527 51.38666814399139 0 0 0
1602 321 2 0.06 2.370814255130143e-06 20.7 32.13999960781921 0 0 0
1603 321 2 0.06 1.0276631757559411 20.7 30.68666982957377 0 0 0
1606 322 1 -0.24 10.34999410919636 20.7 31.049994196752106 0 0 0
1607 322 2 0.06 10.350002472325793 20.7 32.139999603574296 0 0 0
1608 322 2 0.06 11.377663331516503 20.7 30.686669902181226 0 0 0
1609 322 2 0.06 9.836169540261931 19.810011822995268 30.686668143991387 0 0 0
1610 322 2 0.06 9.836169540261931 21.58998817700473 30.686668143991387 0 0 0
1611 323 1 -0.24 20.699994260471342 20.7 31.049994230673708 0 0 0
1612 323 2 0.06 20.700002370814257 20.7 32.13999960781921 0 0 0
1613 323 2 0.06 21.727663175755943 20.7 30.68666982957377 0 0 0
1614 323 2 0.06 20.186169599690267 19.810011877325856 30.68666816123931 0 0 0
1615 323 2 0.06 20.186169599690267 21.589988122674143 30.68666816123931 0 0 0
1616 324 1 -0.24 31.049994109196355 20.7 31.049994196752106 0 0 0
1617 324 2 0.06 31.050002472325794 20.7 32.139999603574296 0 0 0
1618 324 2 0.06 32.0776633315165 20.7 30.686669902181226 0 0 0
1619 324 2 0.06 30.53616954026193 19.810011822995264 30.68666814399139 0 0 0
1620 324 2 0.06 30.53616954026193 21.589988177004734 30.68666814399139 0 0 0
1621 325 1 -0.24 41.39999426047134 20.7 31.049994230673708 0 0 0
1622 325 2 0.06 41.400002370814256 20.7 32.13999960781921 0 0 0
1623 325 2 0.06 42.42766317575594 20.7 30.68666982957377 0 0 0
1624 325 2 0.06 40.88616959969027 19.810011877325856 30.68666816123931 0 0 0
1625 325 2 0.06 40.88616959969027 21.589988122674143 30.68666816123931 0 0 0
1629 326 2 0.06 51.23616954026193 19.810011822995264 30.68666814399139 0 0 0
1630 326 2 0.06 51.23616954026193 21.589988177004734 30.68666814399139 0 0 0
2708 542 2 0.06 11.377663331516505 41.4 51.38666990218123 0 0 0
1652 331 2 0.06 2.3713774928930674e-06 31.049999999999997 32.139999603575625 0 0 0
1653 331 2 0.06 1.0276631805719008 31.049999999999997 30.686669832993132 0 0 0
1656 332 1 -0.24 10.349994062250918 31.049999999999997 31.049994164827936 0 0 0
1657 332 2 0.06 10.35000247524625 31.049999999999997 32.139999599503874 0 0 0
1658 332 2 0.06 11.377663327930604 31.049999999999997 30.686669905904463 0 0 0
1659 332 2 0.06 9.836169563911282 30.160011639102343 30.686668160107182 0 0 0
1660 332 2 0.06 9.836169563911282 31.93998836089765 30.686668160107182 0 0 0
1661 333 1 -0.24 20.699994218071513 31.049999999999997 31.049994196372975 0 0 0
1662 333 2 0.06 20.70000237137749 31.049999999999997 32.139999603575625 0 0 0
1663 333 2 0.06 21.727663180571902 31.049999999999997 30.686669832993132 0 0 0
1664 333 2 0.06 20.18616961837955 30.160011688673055 30.686668178773438 0 0 0
1665 333 2 0.06 20.18616961837955 31.93998831132694 30.686668178773438 0 0 0
1666 334 1 -0.24 31.049994062250917 31.049999999999997 31.049994164827936 0 0 0
1667 334 2 0.06 31.05000247524625 31.049999999999997 32.139999599503874 0 0 0
1668 334 2 0.06 32.0776633279306 31.049999999999997 30.686669905904463 0 0 0
1669 334 2 0.06 30.53616956391128 30.160011639102343 30.686668160107182 0 0 0
1670 334 2 0.06 30.53616956391128 31.93998836089765 30.686668160107182 0 0 0
1671 335 1 -0.24 41.39999421807151 31.049999999999997 31.049994196372975 0 0 0
1672 335 2 0.06 41.40000237137749 31.049999999999997 32.139999603575625 0 0 0
1673 335 2 0.06 42.427663180571905 31.049999999999997 30.686669832993132 0 0 0
1674 335 2 0.06 40.886169618379554 30.160011688673055 30.686668178773438 0 0 0
1675 335 2 0.06 40.886169618379554 31.93998831132694 30.686668178773438 0 0 0
1679 336 2 0.06 51.23616956391128 30.160011639102343 30.686668160107182 0 0 0
1680 336 2 0.06 51.23616956391128 31.93998836089765 30.686668160107182 0 0 0
2703 541 2 0.06 1.0276631757559411 41.4 51.38666982957377 0 0 0
1702 341 2 0.06 2.370814255130149e-06 41.4 32.13999960781921 0 0 0
1703 341 2 0.06 1.0276631757559411 41.4 30.68666982957377 0 0 0
1706 342 1 -0.24 10.34999410919636 41.4 31.049994196752106 0 0 0
1707 342 2 0.06 10.350002472325793 41.4 32.139999603574296 0 0 0
1708 342 2 0.06 11.377663331516503 41.4 30.686669902181226 0 0 0
1709 342 2 0.06 9.836169540261931 40.51001182299527 30.686668143991387 0 0 0
1710 342 2 0.06 9.836169540261931 42.28998817700473 30.686668143991387 0 0 0
1711 343 1 -0.24 20.699994260471342 41.4 31.049994230673708 0 0 0
1712 343 2 0.06 20.700002370814257 41.4 32.13999960781921 0 0 0
1713 343 2 0.06 21.727663175755943 41.4 30.68666982957377 0 0 0
1714 343 2 0.06 20.186169599690267 40.51001187732586 30.68666816123931 0 0 0
1715 343 2 0.06 20.186169599690267 42.28998812267414 30.68666816123931 0 0 0
1716 344 1 -0.24 31.049994109196355 41.4 31.049994196752106 0 0 0
1717 344 2 0.06 31.050002472325794 41.4 32.139999603574296 0 0 0
1718 344 2 0.06 32.0776633315165 41.4 30.686669902181226 0 0 0
1719 344 2 0.06 30.536169540261927 40.51001182299527 30.686668143991387 0 0 0
1720 344 2 0.06 30.536169540261927 42.28998817700473 30.686668143991387 0 0 0
1721 345 1 -0.24 41.399994260471345 41.4 31.049994230673708 0 0 0
1722 345 2 0.06 41.400002370814256 41.4 32.13999960781921 0 0 0
1723 345 2 0.06 42.42766317575594 41.4 30.68666982957377 0 0 0
1724 345 2 0.06 40.88616959969027 40.51001187732586 30.68666816123931 0 0 0
1725 345 2 0.06 40.88616959969027 42.28998812267414 30.68666816123931 0 0 0
1729 346 2 0.06 51.23616954026193 40.51001182299527 30.686668143991387 0 0 0