LAMMPS (7 Jan 2022)

# ------------------------------- Initialization Section --------------------

include      "system.in.init"        # specify the style of force field used
  atom_style full
  units real
  bond_style harmonic
  angle_style harmonic
  dihedral_style opls
  improper_style harmonic
  pair_style lj/cut/coul/long 11.0 11.0
  pair_modify mix geometric
  special_bonds lj/coul 0.0 0.0 0.5
  kspace_style pppm 0.0001

# ------------------------------- Atom Definition Section -------------------

read_data    "system.data"
Reading data file ...
  orthogonal box = (0 0 0) to (103.5 103.5 103.5)
  1 by 1 by 1 MPI processor grid
  reading atoms ...
  5000 atoms
  scanning bonds ...
  4 = max bonds/atom
  scanning angles ...
  6 = max angles/atom
  reading bonds ...
  4000 bonds
  reading angles ...
  6000 angles
Finding 1-2 1-3 1-4 neighbors ...
  special bond factors lj:    0        0        0.5     
  special bond factors coul:  0        0        0.5     
     4 = max # of 1-2 neighbors
     3 = max # of 1-3 neighbors
     3 = max # of 1-4 neighbors
     4 = max # of special neighbors
  special bonds CPU = 0.001 seconds
  read_data CPU = 0.013 seconds

# ------------------------------- Settings Section --------------------------

include      "system.in.settings"    # load the force field parameters
  pair_coeff 1 1 0.066 3.5
  pair_coeff 2 2 0.03 2.5
  bond_coeff 1 340.0 1.09
  angle_coeff 1 33.0 107.8
  set type 1 charge -0.24
Setting atom values ...
  1000 settings made for charge
  set type 2 charge 0.06
Setting atom values ...
  4000 settings made for charge
include      "system.in.charges"     # load the charge of each atom
  set type 1 charge -0.24
Setting atom values ...
  1000 settings made for charge
  set type 2 charge 0.06
Setting atom values ...
  4000 settings made for charge

# ------------------------------- Run Section -------------------------------


# -- minimization protocol --

thermo          500
minimize	1.0e-4 1.0e-6 100000 400000
WARNING: Using 'neigh_modify every 1 delay 0 check yes' setting during minimization (../min.cpp:187)
PPPM initialization ...
  using 12-bit tables for long-range coulomb (../kspace.cpp:340)
  G vector (1/distance) = 0.13982374
  grid = 15 15 15
  stencil order = 5
  estimated absolute RMS force accuracy = 0.025711481
  estimated relative force accuracy = 7.7429363e-05
  using double precision KISS FFT
  3d grid and FFT values/proc = 8000 3375
  generated 1 of 1 mixed pair_coeff terms from geometric mixing rule
Neighbor list info ...
  update every 1 steps, delay 0 steps, check yes
  max neighbors/atom: 2000, page size: 100000
  master list distance cutoff = 13
  ghost atom cutoff = 13
  binsize = 6.5, bins = 16 16 16
  1 neighbor lists, perpetual/occasional/extra = 1 0 0
  (1) pair lj/cut/coul/long, perpetual
      attributes: half, newton on
      pair build: half/bin/newton
      stencil: half/bin/3d
      bin: standard
Per MPI rank memory allocation (min/avg/max) = 10.85 | 10.85 | 10.85 Mbytes
Step Temp E_pair E_mol TotEng Press 
       0            0    13.473059    169.81587    183.28893    62.917711 
       2            0     13.46648    168.45644    181.92292    1.7188027 
Loop time of 0.0187784 on 1 procs for 2 steps with 5000 atoms

100.0% CPU use with 1 MPI tasks x no OpenMP threads

Minimization stats:
  Stopping criterion = energy tolerance
  Energy initial, next-to-last, final = 
      183.288930481478   181.923003048622   181.922915101734
  Force two-norm initial, final = 43.104107 0.12623321
  Force max component initial, final = 0.68269501 0.0017082284
  Final line search alpha, max atom move = 1 0.0017082284
  Iterations, force evaluations = 2 4

MPI task timing breakdown:
Section |  min time  |  avg time  |  max time  |%varavg| %total
---------------------------------------------------------------
Pair    | 0.0079308  | 0.0079308  | 0.0079308  |   0.0 | 42.23
Bond    | 0.0016493  | 0.0016493  | 0.0016493  |   0.0 |  8.78
Kspace  | 0.008791   | 0.008791   | 0.008791   |   0.0 | 46.81
Neigh   | 0          | 0          | 0          |   0.0 |  0.00
Comm    | 0.00011057 | 0.00011057 | 0.00011057 |   0.0 |  0.59
Output  | 0          | 0          | 0          |   0.0 |  0.00
Modify  | 0          | 0          | 0          |   0.0 |  0.00
Other   |            | 0.0002967  |            |       |  1.58

Nlocal:           5000 ave        5000 max        5000 min
Histogram: 1 0 0 0 0 0 0 0 0 0
Nghost:           5985 ave        5985 max        5985 min
Histogram: 1 0 0 0 0 0 0 0 0 0
Neighs:          90000 ave       90000 max       90000 min
Histogram: 1 0 0 0 0 0 0 0 0 0

Total # of neighbors = 90000
Ave neighs/atom = 18
Ave special neighs/atom = 4
Neighbor list builds = 0
Dangerous builds = 0

# Optional: write the coordinates after minimization
write_data  	system_after_min.data
System init for write_data ...
PPPM initialization ...
  using 12-bit tables for long-range coulomb (../kspace.cpp:340)
  G vector (1/distance) = 0.13982374
  grid = 15 15 15
  stencil order = 5
  estimated absolute RMS force accuracy = 0.025711481
  estimated relative force accuracy = 7.7429363e-05
  using double precision KISS FFT
  3d grid and FFT values/proc = 8000 3375
  generated 1 of 1 mixed pair_coeff terms from geometric mixing rule


# -- simulation protocol --


timestep        1.0
dump            1 all custom 2500 traj_npt.lammpstrj id mol type x y z ix iy iz
thermo_style    custom step time temp press vol density pe etotal epair ebond eangle edihed
fix             fxnpt all npt temp 160.0 160.0 100.0 iso 1.0 1.0 1000.0 drag 1.0


# ----------------------------- Customization -------------------------------
variable	d equal density
variable 	pe equal epair

fix extra all print 100 "${d} ${pe}" file out.txt screen no

run             1000000
PPPM initialization ...
  using 12-bit tables for long-range coulomb (../kspace.cpp:340)
  G vector (1/distance) = 0.13982374
  grid = 15 15 15
  stencil order = 5
  estimated absolute RMS force accuracy = 0.025711481
  estimated relative force accuracy = 7.7429363e-05
  using double precision KISS FFT
  3d grid and FFT values/proc = 8000 3375
  generated 1 of 1 mixed pair_coeff terms from geometric mixing rule
Per MPI rank memory allocation (min/avg/max) = 9.723 | 9.723 | 9.723 Mbytes
Step Time Temp Press Volume Density PotEng TotEng E_pair E_bond E_angle E_dihed 
       2            2            0    1.7188027    1108717.9  0.024027777    181.92292    181.92292     13.46648 1.4398946e-05    168.45642            0 
     500          500 6.0149377e-05    1.7080752    1110989.7  0.023978643    181.86579    181.86669    13.409133 1.1719094e-05    168.45665            0 
    1000         1000 0.00041623193    1.6873693    1116069.4  0.023869507    181.73771    181.74391    13.281263 8.2992888e-06    168.45644            0 
    1500         1500 0.0017191184    1.6646745    1122511.7  0.023732516    181.57561    181.60123     13.11909 8.3543025e-06    168.45651            0 
    2000         2000 0.0058151696    1.6446743    1129570.5  0.023584208        181.4    181.48666    12.943321 1.9718599e-05    168.45666            0 
    2500         2500  0.017792568    1.6262746    1136830.7  0.023433591     181.2258    181.49093    12.769327 2.097698e-05    168.45646            0 
    3000         3000  0.029933017    3.9578444    1144105.5  0.023284588     200.7064    201.15243    32.249004 0.00015740123    168.45724            0 
    3500         3500   0.15821617    4.3903177    1163307.1  0.022900253    205.18654    207.54413    36.728354 0.00013098873    168.45806            0 
    4000         4000   0.51146922    5.1021219    1192898.6   0.02233218    210.69124    218.31267    42.232891 0.00038624224    168.45796            0 
    4500         4500    1.4394338    5.1327051    1223091.5  0.021780894    208.51532    229.96442    40.054765 0.00039385248    168.46016            0 
    5000         5000    4.1846714    3.2107673    1247837.4  0.021348955    192.60189    254.95797    24.134967 0.0025089832    168.46442            0 
    5500         5500    12.021519   0.49799212    1258870.2  0.021161853    172.23435    351.36784    3.7132381  0.027693258    168.49341            0 
    6000         6000    33.468018    1.8800915    1268128.2   0.02100736    186.70329    685.41255    17.890995   0.20142163    168.61087            0 
    6500         6500    77.917334    2.4492314    1282899.1  0.020765487    195.48347    1356.5351    25.093204    1.0844907    169.30578            0 
    7000         7000     134.0039  -0.97413327    1294642.6  0.020577128    167.76099    2164.5625    -6.957753    3.0602392    171.65851            0 
    7500         7500    159.73489    2.3561469    1292211.4  0.020615842    195.37147    2575.5921    18.035867    4.3008164    173.03478            0 
    8000         8000    160.09689  -0.86952275    1294638.7   0.02057719    163.31774    2548.9327   -13.669665    4.2935738    172.69383            0 
    8500         8500    160.45543   0.94479672    1285574.4  0.020722274    168.28769    2559.2452   -9.5164578    4.2103279    173.59382            0 
    9000         9000    164.40163   0.78630194    1293244.6  0.020599372   -5.5459845     2444.214   -187.18276    5.0198861    176.61689            0 
    9500         9500    160.00549     11.20489    1372263.1  0.019413205    162.55539    2546.8083   -34.316885    5.1673798    191.70489            0 
   10000        10000      160.613    22.333121    1427258.5  0.018665173    165.14574    2558.4512   -48.670628     5.089743    208.72663            0 
   10500        10500    159.33021    24.015774    1524357.9  0.017476228    204.47266    2578.6632   -9.7467763    5.1642681    209.05516            0 
   11000        11000    159.73892    14.945902    1612201.3  0.016524007    139.33091    2519.6117   -68.647181    5.2565305    202.72156            0 
   11500        11500    160.47939    9.1071267    1697052.8  0.015697818    129.74084    2521.0554   -66.757931    5.2597705      191.239            0 
   12000        12000    161.32602    9.6591941    1791834.7  0.014867457    146.33419    2550.2644   -51.130421    4.8531439    192.61146            0 
   12500        12500    160.95503    6.8127859    1886523.8  0.014121224    148.52649    2546.9286   -58.505532    6.4014921    200.63053            0 
   13000        13000    159.10938    25.665208      1980036  0.013454314    141.00315    2511.9031   -83.305159    5.9176456    218.39066            0 
   13500        13500     160.3421    11.488269    2088540.2  0.012755333     168.2386    2557.5074   -62.958626    5.0733386    226.12388            0 
   14000        14000    154.03469    45.085533    2246468.7  0.011858623    259.00026    2554.2819    34.082613     6.303177    218.61447            0 
   14500        14500    160.33549    9.5683947    2408463.4  0.011061005    237.12709    2626.2974   -16.336719    6.2909064     247.1729            0 
   15000        15000    158.43144     20.05655      2567318  0.010376598     271.6247    2632.4226   -9.6688015    6.2836012     275.0099            0 
   15500        15500    159.88023    6.3491144    2741057.1 0.0097188876    245.91776    2628.3042   -18.641385    8.1383855    256.42076            0 
   16000        16000     147.2288    47.507104    2915656.1 0.0091368889    393.33898    2587.2055    87.799216    10.258222    295.28154            0 
   16500        16500    161.00803    11.426759    3136799.4 0.0084927413    230.88365    2630.0755   -32.190942    6.9809974     256.0936            0 
   17000        17000    159.56359    13.530018    3423903.5 0.0077806008    266.72809    2644.3962   -40.576324    7.3183579    299.98606            0 
   17500        17500    159.13822    15.787697    3697146.4 0.0072055642    309.39623    2680.7259   -19.383326    8.0409224    320.73864            0 
   18000        18000    159.07854    13.975719    4000757.9 0.0066587447    310.48748    2680.9279   -23.532904    8.3063952    325.71398            0 
   18500        18500    160.17709    11.149359      4324399 0.0061603996     301.8615    2688.6715   -18.523518    8.4976782    311.88734            0 
   19000        19000    158.28009    9.9477918    4667383.1 0.0057077007    335.65837     2694.201   -14.022844    10.504082    339.17713            0 
   19500        19500    159.24736    8.3573568    5035640.9  0.005290295    326.73805     2699.694   -12.524278    11.327645    327.93469            0 
   20000        20000    159.43767    8.3000561    5421597.4 0.0049136857    330.92128    2706.7131   -16.912794    10.735149    337.09892            0 
   20500        20500    159.24297     8.819203    5832804.6 0.0045672756    336.50231    2709.3928   -16.953235    11.000346     342.4552            0 
   21000        21000    159.42927    8.5237808    6265345.9 0.0042519641    337.85165    2713.5183   -14.355462     10.96829    341.23883            0 
   21500        21500    160.22584    7.4810826    6729319.2 0.0039587996    328.20856    2715.7449   -21.397956    12.218534    337.38798            0 
   22000        22000    159.52545    6.1836973    7210069.1 0.0036948364    348.49999    2725.5998   -15.548046     12.86436    351.18368            0 
   22500        22500    160.01258    5.4100836    7708876.3   0.00345576    345.07709    2729.4356   -13.461829    13.832644    344.70628            0 
   23000        23000    159.14394    4.8942393    8233556.9 0.0032355428    359.97048    2731.3854    -12.61231    13.728179    358.85461            0 
   23500        23500    159.86205    4.2709088    8783351.5 0.0030330137    350.24764    2732.3632   -16.301578    14.990151    351.55907            0 
   24000        24000    159.10201    4.4600823    9361286.8 0.0028457654     366.1044    2736.8945   -13.499892     14.91493    364.68936            0 
   24500        24500    159.98911    3.8292781    9958490.9 0.0026751067    358.80161    2742.8104   -10.406014    14.577753    354.62987            0 
   25000        25000    159.63557    3.6153341     10578295 0.0025183667    368.09456    2746.8352   -8.5146111    15.891789    360.71738            0 
   25500        25500     159.5826    3.5251433     11223638 0.0023735641    372.10488    2750.0563   -8.4189347    16.880286    363.64353            0 
   26000        26000    159.32721     3.502094     11886195 0.0022412578    378.55748    2752.7033   -7.3949039    15.454975    370.49741            0 
   26500        26500    159.89188    3.0664288     12567979 0.0021196745    370.59167    2753.1517   -9.5967132    15.494502    364.69388            0 
   27000        27000    160.09018    2.9227381     13260729 0.0020089413    369.41214     2754.927   -10.842445     15.42276    364.83182            0 
   27500        27500    159.31444    2.6174455     13969864 0.0019069639    385.62775    2759.5833   -7.2786996    15.865306    377.04114            0 
   28000        28000    160.05252    2.1846873     14682684 0.0018143839    376.38501    2761.3388   -7.0518066    18.083653    365.35316            0 
   28500        28500    159.41985    1.6908276     15409827 0.0017287686    386.50013    2762.0264   -7.3906504    17.508908    376.38187            0 
   29000        29000    160.10549    1.6137094     16140620 0.0016504958    379.90207    2765.6452   -6.7824598    17.570979    369.11355            0 
   29500        29500     159.4514    1.9497956     16871635 0.0015789831    389.38569    2765.3821   -8.0362757    17.565384    379.85659            0 
   30000        30000    159.99144    2.0096405     17606978  0.001513038    384.31275    2768.3563   -6.7732323    17.070344    374.01564            0 
   30500        30500    160.16063    2.1384985     18334421 0.0014530062    384.95835    2771.5231   -4.3087293    17.012475     372.2546            0 
   31000        31000    159.63671     2.232424     19050889 0.0013983613    393.55611    2772.3138   -4.8849415    17.409894    381.03115            0 
   31500        31500    159.95877    1.9826239     19756015 0.0013484514    389.30478    2772.8615   -5.7155694    17.767261    377.25309            0 
   32000        32000    160.03262    1.5454283     20430721   0.00130392    390.11986    2774.7771   -5.0619704    18.722319    376.45951            0 
   32500        32500    159.80442    1.3424515     21090743 0.0012631146    394.65531     2775.912    -4.308311      19.7007    379.26292            0 
   33000        33000    160.19484    1.1652541     21718211 0.0012266216    390.65514    2777.7296   -4.1846796    20.115478    374.72434            0 
   33500        33500    159.64976    1.2443639     22315717 0.0011937786    398.11434    2777.0666   -6.0495665    21.058683    383.10522            0 
   34000        34000    159.97707   0.90201688     22877543 0.0011644619    394.74381    2778.5733   -4.4703841     20.14914    379.06505            0 
   34500        34500    159.64984   0.88433084     23395548 0.0011386793    400.29504    2779.2484   -4.5339194    20.595422    384.23353            0 
   35000        35000    160.05231   0.61576296     23881597 0.0011155044    395.78494    2780.7355   -3.4758997    18.932029    380.32881            0 
   35500        35500    160.28537   0.95553062     24334887 0.0010947257    392.49247    2780.9159   -4.1056547    19.333954    377.26417            0 
   36000        36000    159.63737    1.1177974     24732195 0.0010771396    401.71382    2780.4813   -5.5325932     19.64458    387.60184            0 
   36500        36500    159.78173    1.4356436     25079475 0.0010622242    401.54802    2782.4667   -4.0006841     19.39598    386.15273            0 
   37000        37000    159.97227    1.6275297     25372542 0.0010499549    399.52341    2783.2814   -3.4547648    18.228369     384.7498            0 
   37500        37500    160.48635    1.6974782     25625262 0.0010396002    391.54412    2782.9623   -4.6456983    17.548352    378.64146            0 
   38000        38000    160.47592    1.2809046     25842590 0.0010308574    391.08312    2782.3459    -5.165851    17.622566     378.6264            0 
   38500        38500    159.86477   0.94509149     26035903 0.0010232034     401.6838    2783.8399   -3.8513087    19.987862    385.54725            0 
   39000        39000    160.02346   0.45444269     26169897 0.0010179645    399.40858    2783.9292   -4.3208833    20.917597    382.81187            0 
   39500        39500    159.68362   0.52814873     26265332 0.0010142657    404.76413    2784.2208     -3.54716    20.981852    387.32944            0 
   40000        40000    159.83718   0.82362517     26346089 0.0010111568    402.92682    2784.6718   -3.6566497    21.073555    385.50992            0 
   40500        40500    159.68227   0.88528451     26418346 0.0010083911    404.73075    2784.1673   -4.6357388    21.186495       388.18            0 
   41000        41000    160.21703   0.86845886     26463038 0.0010066881    397.04331    2784.4485   -4.3466809    19.038932    382.35106            0 
   41500        41500    160.34505   0.74859872     26495983 0.0010054364     394.6855    2783.9983   -4.8146075    18.645173    380.85493            0 
   42000        42000    159.52763    0.6957581     26532698 0.0010040451    408.52323    2785.6555   -3.7267183    19.768586    392.48137            0 
   42500        42500    159.75509   0.50754957     26555341  0.001003189    404.55914    2785.0808   -4.5255288    21.044768     388.0399            0 
   43000        43000    159.93745   0.66240237     26595822 0.0010016621    402.98485    2786.2238   -3.5044719    21.375786    385.11353            0 
   43500        43500    159.65859   0.92069406     26651063 0.00099958586    405.93116    2785.0149   -2.4956376    21.624736    386.80206            0 
   44000        44000    159.81277    1.1941943     26712263 0.00099729575    405.22489    2786.6061   -2.7108592    19.261842    388.67391            0 
   44500        44500    160.11358    1.1816072     26755412 0.00099568736    400.06312    2785.9268   -3.7257809    20.198253    383.59064            0 
   45000        45000    160.04881    1.1911887     26791652 0.00099434054    399.91502    2784.8135   -4.0924756    19.856803     384.1507            0 
   45500        45500    159.80141    1.2509257     26829050 0.0009929545    404.87679    2786.0887   -3.7248428    18.117614    390.48402            0 
   46000        46000    160.50699    1.2912701     26860413 0.0009917951     394.6214    2786.3472   -3.6158012    19.135365    379.10184            0 
   46500        46500    159.84968    1.0971732     26884842 0.00099089391    404.82794    2786.7592   -3.4682797    20.593332    387.70289            0 
   47000        47000    160.27891   0.84554564     26899764 0.00099034422    398.36932    2786.6965    -3.241405    22.222695    379.38803            0 
   47500        47500    159.89901   0.88707792     26921902 0.00098952985    404.44796    2787.1142   -3.7247757    20.582217    387.59052            0 
   48000        48000    159.89179   0.60511846     26953977 0.00098835233     403.9105    2786.4692   -3.7045175    22.612085    385.00293            0 
   48500        48500    160.18279   0.85957594     26966484 0.00098789392    397.58195    2784.4768   -6.5723238    19.827359    384.32692            0 
   49000        49000    159.76603    1.2721324     27001829 0.0009866008    403.60587    2784.2906    -5.535667    18.955728    390.18581            0 
   49500        49500    159.79376    1.2909492     27059991 0.0009844802    404.57864    2785.6766   -4.2744872    20.257773    388.59535            0 
   50000        50000    160.12109    1.0338646     27121722 0.00098223949    400.37528    2786.3508   -4.1417913    21.218071      383.299            0 
   50500        50500     159.9396    1.3014862     27175986 0.00098027816    404.34715    2787.6182   -2.8424146    21.067021    386.12255            0 
   51000        51000    160.36535    1.1879924     27243152 0.00097786135    398.08188    2787.6971   -3.2388454    20.946972    380.37376            0 
   51500        51500    159.66983    1.0938261     27309010 0.00097550316    406.84371    2786.0949   -3.1704559    20.952434    389.06173            0 
   52000        52000    160.25334    1.0815528     27372242 0.0009732497    399.37036    2787.3165   -3.3557246    19.257661    383.46842            0 
   52500        52500     159.9511   0.89856745     27422423 0.00097146872    402.30417    2785.7465   -4.8968796    19.979955    387.22109            0 
   53000        53000    159.51019   0.90369966     27448247 0.00097055473    407.48158     2784.354   -4.8747962    20.466805    391.88957            0 
   53500        53500    159.95392   0.56393509     27476580 0.00096955391    403.67001    2787.1545   -4.8342738    21.598912    386.90537            0 
   54000        54000    159.70206   0.88240162     27507033 0.00096848052    408.34562    2788.0771   -3.4418126    21.776324    390.01111            0 
   54500        54500    160.42542    1.0898955     27527053 0.00096777616    394.47296    2784.9832   -6.7931691    20.139539    381.12659            0 
   55000        55000    160.04939    1.2015195     27583791 0.0009657855    400.35041    2785.2575   -6.6336439    20.753355     386.2307            0 
   55500        55500    160.03907    1.1319523     27622956 0.00096441617    400.40373     2785.157    -5.735278    18.832766    387.30624            0 
   56000        56000    159.96541   0.92628687     27660241 0.00096311619     403.8313    2787.4869   -4.1066403    19.791074    388.14687            0 
   56500        56500    160.14683   0.87456928     27697273 0.00096182848    400.95681    2787.3159   -4.4093484    21.611462     383.7547            0 
   57000        57000    159.81409   0.97792884     27726045 0.00096083037     405.2942     2786.695    -6.007509    21.469498    389.83221            0 
   57500        57500    160.17711    1.1601588     27762184 0.00095957962    400.11319    2786.9234   -4.3786451    21.432686    383.05915            0 
   58000        58000    159.77266    1.2318558     27794371 0.00095846838    406.22041    2787.0039    -4.936034    21.345069    389.81138            0 
   58500        58500    160.01963    0.9819807     27811448 0.00095787985    402.80358    2787.2672   -5.2904152    20.985271    387.10873            0 
   59000        59000    160.11534    0.9895292     27817416 0.00095767434    403.18715    2789.0769   -3.6430016    20.551279    386.27887            0 
   59500        59500    160.38342   0.84024362     27807894 0.00095800227    398.00675    2787.8912   -4.7411749    21.292705    381.45522            0 
   60000        60000    159.59894   0.69640155     27831180 0.00095720074    410.29245    2788.4874   -4.3018058    20.739222    393.85503            0 
   60500        60500    160.35158   0.81139665     27873482 0.00095574805    399.40867    2788.8187   -3.8819592    20.109588    383.18104            0 
   61000        61000    159.78358   0.79449961     27912687 0.00095440564    408.63126    2789.5775   -3.7723704    20.595917    391.80771            0 
   61500        61500    159.76053   0.85670689     27936291 0.00095359924    409.21347    2789.8162   -4.3096827    20.909868    392.61329            0 
   62000        62000    159.68272   0.78096909     27971084 0.00095241307    410.10379    2789.5471    -4.012424     21.95754    392.15867            0 
   62500        62500    160.18598    1.0394279     28010599 0.00095106947    403.41379    2790.3562   -3.2805691    21.724113    384.97024            0 
   63000        63000    159.78771    1.2860565     28052936 0.00094963414    407.96473    2788.9726   -4.2604093    20.966309    391.25883            0 
   63500        63500    160.09299    1.3141039     28086272 0.00094850702    404.24669    2789.8034   -4.2830032    20.728566    387.80113            0 
   64000        64000    160.09493    1.0458483     28103866 0.00094791321    404.24069    2789.8264   -4.7751555     21.13164    387.88421            0 
   64500        64500    159.68268    1.1565593     28130504 0.0009470156    409.81967    2789.2624   -5.1880559    19.875833    395.13189            0 
   65000        65000    160.08262   0.80825789     28163543 0.00094590465     405.6503    2791.0525   -3.7966142    20.534251    388.91266            0 
   65500        65500    159.73957    1.0678087     28190386 0.00094500394    411.84172    2792.1322   -2.8118955    20.588658    394.06496            0 
   66000        66000    160.16981    1.0138666     28214271 0.00094420396    405.14927    2791.8508   -2.8779718    22.366875    385.66037            0 
   66500        66500    159.66776    1.0154294     28224441 0.00094386372    413.43466    2792.6551   -3.1040257    21.510333    395.02835            0 
   67000        67000    159.91901   0.88733522     28226346 0.00094380001     410.1572    2793.1215   -2.1280248     20.82918    391.45605            0 
   67500        67500    160.46669    0.8839249     28203229 0.0009445736    400.77467    2791.8999   -2.7372456    20.790639    382.72128            0 
   68000        68000    159.49202    1.0980399     28192387 0.00094493686     415.0337    2791.6354   -3.4073242    19.246502    399.19453            0 
   68500        68500     160.1733    1.1047188     28196688 0.00094479273    406.99036    2793.7439   -1.4635576    20.741161    387.71276            0 
   69000        69000    159.76339    1.4110566     28207714 0.00094442342    412.95138    2793.5968    -1.806561    21.468833     393.2891            0 
   69500        69500    160.47787    1.5352332     28215910 0.00094414909    400.82402    2792.1158   -3.8593822    20.354924    384.32848            0 
   70000        70000    159.81219    1.5806396     28250712 0.00094298601    410.06396    2791.4365   -4.2186479     19.61601     394.6666            0 
   70500        70500    159.47315    1.3750923     28277502 0.00094209262    415.50562    2791.8262   -1.0063924    20.169129    396.34288            0 
   71000        71000    160.22102    1.1151747     28347366 0.00093977078    403.59441     2791.059   -4.3788569    21.269269      386.704            0 
   71500        71500    160.01024     1.029189     28406694 0.00093780804    408.72965    2793.0533   -2.9318751    21.104147    390.55738            0 
   72000        72000     160.2393    0.9328572     28444692 0.00093655527     403.9347    2791.6717   -4.8302572    20.165957      388.599            0 
   72500        72500    159.93769   0.96644755     28484097 0.00093525963    407.99687    2791.2395   -4.9346246    22.005565    390.92593            0 
   73000        73000    160.18663   0.94383863     28541251 0.00093338676    406.43634    2793.3884   -2.0742998    20.590699    387.91994            0 
   73500        73500     159.5572   0.94432798     28573134 0.00093234524     416.4517    2794.0247   -2.4052421    22.010074    396.84686            0 
   74000        74000    160.08209   0.98323432     28606036 0.0009312729    408.15959    2793.5539    -2.626544    21.006635    389.77949            0 
   74500        74500    160.07766    1.0573274     28624249 0.00093068036    408.34004    2793.6683   -2.9022085    21.524828    389.71742            0 
   75000        75000    160.02826    1.2667715     28638915 0.00093020374     406.5173    2791.1095   -3.8114602    20.252765      390.076            0 
   75500        75500    160.03025    1.2196068     28652670 0.0009297572    406.74023     2791.362   -5.2959443    21.333705    390.70247            0 
   76000        76000    160.02584    1.2867062     28642110 0.00093009996    406.60721    2791.1634   -5.2711143    21.623988    390.25434            0 
   76500        76500    160.09755    1.2847967     28626703 0.00093060057    407.11353    2792.7382    -3.929651     22.34196    388.70122            0 
   77000        77000     160.6163    1.0210921     28607085 0.00093123875    398.55231    2791.9069   -5.4310245    21.993846    381.98948            0 
   77500        77500    159.34674    1.2091038     28606775 0.00093124885    417.15378    2791.5906    -5.528146    21.741805    400.94012            0 
   78000        78000    160.29609    1.0506002     28641592 0.0009301168     403.8931    2792.4763   -3.9991798     20.88774    387.00454            0 
   78500        78500    159.84168     1.341256     28663712 0.00092939901    410.39099     2792.203    -4.021376    20.058042    394.35432            0 
   79000        79000     159.6451    1.3199708     28711370 0.00092785632    413.93636    2792.8191   -4.6019636    20.528702    398.00962            0 
   79500        79500    160.27534    1.1192553     28753093 0.00092650991    403.14757    2791.4216   -5.4576532    21.374053    387.23117            0 
   80000        80000      159.877   0.99059575     28802142 0.00092493212    409.38513    2791.7234   -4.1950028    21.654474    391.92566            0 
   80500        80500    159.53045    1.0641224     28846158 0.00092352078    415.33478     2792.509   -5.3455467    21.621099    399.05923            0 
   81000        81000    160.17196   0.72235805     28887538 0.00092219787    407.73398    2794.4674   -3.1423183    22.924953    387.95134            0 
   81500        81500    160.02688   0.83110413     28934579 0.00092069859    410.42526    2794.9969    -3.394912    22.099185    391.72099            0 
   82000        82000    160.01817   0.87102821     28997448 0.00091870244    410.55532    2794.9971   -3.5713939    22.578546    391.54817            0 
   82500        82500    160.22775    1.0140754     29058800 0.00091676275    406.19511    2793.7599   -4.3034292    21.448438     389.0501            0 
   83000        83000    159.91758    1.1872547     29116596 0.00091494302    412.59463    2795.5376    -2.826273    21.052812    394.36809            0 
   83500        83500    160.08147    1.1699184     29148822 0.00091393147    411.20419    2796.5892   -2.6017682    22.630898    391.17506            0 
   84000        84000    159.98122    1.1850097     29160912 0.00091355258     410.4921    2794.3833   -4.4791567    21.556198    393.41505            0 
   84500        84500    160.17823    1.0770553     29174918 0.00091311399    408.56082    2795.3877   -3.1789714    22.244562    389.49523            0 
   85000        85000    160.15643   0.88631747     29158444 0.00091362989    408.19624    2794.6983   -3.7287383    21.631966    390.29301            0 
   85500        85500     159.7163   0.97946983     29145500 0.00091403566    415.56222    2795.5059   -2.7351606    19.830707    398.46667            0 
   86000        86000    160.12369   0.92762379     29177384 0.00091303681    409.46867    2795.4829   -3.5371246    21.451006    391.55479            0 
   86500        86500    159.94388    1.1073767     29221395 0.00091166169    411.84412     2795.179   -3.8055286    22.232732    393.41691            0 
   87000        87000    159.88008    1.1345934     29280167 0.00090983175    412.70086    2795.0851   -3.8897074    21.409011    395.18156            0 
   87500        87500    160.32118    1.1877231     29365669 0.00090718268    406.70338    2795.6604   -3.9528816    21.612332    389.04393            0 
   88000        88000    159.76493    1.1807004     29435460 0.00090503175    416.09463     2796.763   -1.9586559    22.513299    395.53999            0 
   88500        88500    159.51264   0.93332851     29474113 0.00090384486    419.19183    2796.1008   -2.8150344    20.659571     401.3473            0 
   89000        89000    159.78395   0.74402634     29469146 0.00090399723    416.00451    2796.9562   -2.6472007    22.140585    396.51112            0 
   89500        89500    159.71958   0.84082254     29458386 0.00090432741    416.78112    2796.7737   -3.4108081    22.790144    397.40179            0 
   90000        90000    160.05304   0.79500564     29472187 0.00090390395    410.94021    2795.9016   -4.0117061    23.572492    391.37942            0 
   90500        90500    159.78833    1.1352389     29511853 0.00090268904    415.60938    2796.6264   -4.3886119    22.483326    397.51467            0 
   91000        91000    159.95085    1.2323816     29574656 0.00090077212    412.78564    2796.2244   -4.0291509     23.36205    393.45274            0 
   91500        91500    159.54474     1.087261     29644246 0.00089865758    419.80478     2797.192   -3.0393036    21.303461    401.54062            0 
   92000        92000    160.23115    0.9139527     29701033 0.00089693938    408.64427    2796.2597   -4.6673394    22.531748    390.77986            0 
   92500        92500    159.86201   0.83203119     29771995 0.0008948015    415.57205     2797.687   -2.8794788    22.408135    396.04339            0 
   93000        93000    160.06041   0.76695772     29807847 0.00089372527    413.75564     2798.827   -2.8576081    22.086485    394.52677            0 
   93500        93500    160.24448    1.0297436     29825677  0.000893191    410.97721    2798.7914   -1.8126054    21.665281    391.12454            0 
   94000        94000    159.48981    1.4937299     29873953 0.00089174759    421.79961    2798.3684   -2.9656733    20.358784     404.4065            0 
   94500        94500    160.28793    1.3715068     29910406 0.00089066079     410.4327    2798.8943   -3.6559423    22.655098    391.43354            0 
   95000        95000    159.93228    1.3906883     29949751 0.00088949073    414.38765    2797.5497   -4.3819488    22.711374    396.05823            0 
   95500        95500    160.19951    1.3652901     29982797 0.00088851037    410.54868    2797.6927   -3.7217539    21.639444    392.63099            0 
   96000        96000    159.82539    1.1442933     29989873 0.00088830072    417.54742    2799.1166   -3.2525522    21.720291    399.07968            0 
   96500        96500    159.87755   0.97049699     29984055 0.0008884731    416.50221    2798.8487   -3.5440595    21.642089    398.40418            0 
   97000        97000    160.15975   0.90925475     29975171 0.00088873643    411.92999    2798.4815    -3.706954      22.5376    393.09935            0 
   97500        97500    159.98758    1.0956633     29976094 0.00088870905     413.4535    2797.4395   -5.1036699     22.10499    396.45218            0 
   98000        98000    159.73788   0.94918264     29989754 0.00088830426    416.71505    2796.9803   -5.2371789    22.258279    399.69395            0 
   98500        98500    159.98321     1.192502     30003223 0.00088790549    414.44844    2798.3694   -4.6546473    24.490326    394.61276            0 
   99000        99000    159.49265    1.1978089     30007039 0.00088779257    421.22528    2797.8363   -4.2833896    22.102376     403.4063            0 
   99500        99500    160.64042    1.2453329     29997040 0.00088808849    403.87199    2797.5861   -4.5784606    21.042344    387.40811            0 
  100000       100000    159.55381    1.2088701     30009936 0.00088770686    422.39916    2799.9216   -2.7882557     22.70322     402.4842            0 
  100500       100500    160.12217    1.2203499     30042769 0.00088673669    413.42157    2799.4132   -3.4708222    22.758296    394.13409            0 
  101000       101000    159.92458     1.210501     30081770 0.00088558706    417.19404    2800.2413   -3.1346132    21.093868    399.23478            0 
  101500       101500    159.87989    1.2861843     30122602 0.00088438662    417.96493    2800.3463   -3.4671192    20.994454    400.43759            0 
  102000       102000    159.99354    1.1709934     30162950 0.00088320359    415.08867    2799.1636    -3.711093     23.16748    395.63228            0 
  102500       102500    160.65459    1.2401055     30190371 0.00088240141    404.30305    2798.2282   -4.8439803    21.951229     387.1958            0 
  103000       103000     159.6062     1.299569     30215999 0.00088165298    420.09987     2798.403   -3.6700797    22.041393    401.72855            0 
  103500       103500    160.47004    1.1772569     30230785 0.00088122177    408.15317    2799.3284   -3.6500226    23.385103    388.41809            0 
  104000       104000    159.90729    1.1774136     30248750 0.0008806984    417.33221    2800.1219   -3.3017934    23.778403     396.8556            0 
  104500       104500     160.0745   0.94790223     30268818 0.00088011451     415.4591    2800.7404   -2.7726094    23.738415    394.49329            0 
  105000       105000    160.49603   0.98126111     30281090 0.00087975784    408.01348    2799.5759   -3.7164736     24.49349    387.23647            0 
  105500       105500    159.83207    1.0799123     30313606 0.00087881415    419.71541    2801.3843   -2.5084547    23.153758    399.07011            0 
  106000       106000    160.28446   0.85947933     30338641 0.00087808896    412.84208    2801.2519   -1.9130188    23.777489    390.97761            0 
  106500       106500    159.82037   0.90612005     30353168 0.00087766872    418.81786    2800.3123   -2.9185607    22.172696    399.56372            0 
  107000       107000    159.89276   0.87736942     30378056 0.00087694965    418.00615    2800.5793   -3.2270147    21.349403    399.88376            0 
  107500       107500    160.28327   0.62692292     30419476 0.00087575559    412.95149    2801.3436   -2.7897531     23.78066    391.96058            0 
  108000       108000    159.21486   0.48774686     30456806 0.00087468221    429.07713    2801.5489   -2.9959199    24.798812    407.27423            0 
  108500       108500    160.34429   0.12078814     30483501 0.00087391622    412.07939    2801.3808   -3.1114282    25.704247    389.48657            0 
  109000       109000    159.63971   0.22424447     30502683 0.00087336665    423.15623    2801.9586   -2.5146376    24.472476    401.19839            0 
  109500       109500    159.73216  0.045599794     30501090 0.00087341227    420.76275    2800.9427   -3.1636943    24.942705    398.98374            0 
  110000       110000    159.99208   0.38772207     30490228 0.0008737234    416.62281    2800.6758   -3.6562362    23.815086    396.46396            0 
  110500       110500    159.93572   0.62556814     30516814 0.00087296224    416.34675    2799.5601    -3.241336    23.501144    396.08694            0 
  111000       111000    160.33501   0.89765055     30636078 0.00086956384    411.60782    2800.7709   -3.9999087    23.794044    391.81369            0 
  111500       111500    160.05614    1.1761988     30748388 0.00086638772    417.84002    2802.8477   -2.3500255    22.798969    397.39108            0 
  112000       112000    159.75069    1.2573212     30820629 0.00086435698    421.16791     2801.624   -3.6806732    23.130704    401.71788            0 
  112500       112500    159.97612    1.2062635     30858123 0.00086330676    418.06045    2801.8757   -3.1336582     24.12116    397.07295            0 
  113000       113000    159.58309    1.1238094     30852627 0.00086346053    424.36775    2802.3264   -3.4850065    24.163178    403.68958            0 
  113500       113500    160.24998   0.96224594     30858516 0.00086329577    414.35366    2802.2497   -3.0047563    24.643406    392.71502            0 
  114000       114000    160.36266   0.83060919     30880434  0.000862683    412.78946    2802.3646   -3.2519279    23.151723    392.88966            0 
  114500       114500    160.19184    0.8451888     30901944 0.00086208253    415.78824     2802.818   -3.0314426    23.502521    395.31717            0 
  115000       115000    159.79676    1.0104836     30923770 0.00086147407    422.57178    2803.7144   -2.1548728    23.044424    401.68222            0 
  115500       115500    160.07171    1.2362328     30920965 0.00086155221      418.289    2803.5287   -2.7237921    23.130053    397.88274            0 
  116000       116000    160.05722    1.2829427     30914859 0.00086172239    417.82729    2802.8511   -3.9296433    23.178897    398.57803            0 
  116500       116500    160.08064    1.4916542     30926853 0.00086138819    417.89802    2803.2707     -2.47837    22.529393      397.847            0 
  117000       117000    160.05068    1.5063728     30932471 0.00086123174    418.28048    2803.2067   -3.0239652    22.174274    399.13017            0 
  117500       117500    159.92951    1.2609587     30940740 0.00086100157     420.4067    2803.5274   -2.9307706    24.654141    398.68333            0 
  118000       118000    160.01915    1.1513772     30952953 0.00086066185    418.87394    2803.3304   -2.7390676    23.796879    397.81613            0 
  118500       118500    160.12443   0.87055889     30955619 0.00086058773    417.96356    2803.9889   -2.5970132    23.556222    397.00435            0 
  119000       119000    159.85297   0.92165314     30936868 0.00086110935    421.58088    2803.5612   -2.9465473    23.968017    400.55941            0 
  119500       119500     160.3388   0.76931863     30910049 0.00086185649    412.71223    2801.9318   -3.8173664    23.942745    392.58686            0 
  120000       120000    159.75509   0.67577907     30910017 0.00086185738    420.74318    2801.2648   -5.1973635    22.630494    403.31005            0 
  120500       120500    160.24808   0.67948217     30911126 0.00086182645    414.04114    2801.9089   -4.3286893    22.642229     395.7276            0 
  121000       121000    160.18446   0.67717587     30919153 0.00086160271    416.30723     2803.227   -3.4102502    24.967863    394.74962            0 
  121500       121500    159.91951   0.62251625     30957443 0.00086053702    420.53319     2803.505   -3.1149906    25.551813    398.09637            0 
  122000       122000    159.70292   0.79110267     31007053 0.0008591602     424.3744    2804.1187    -2.613664    25.589151    401.39892            0 
  122500       122500    160.02004   0.78517842     31063732 0.00085759256    420.32605    2804.7958   -2.6438528    26.048449    396.92145            0 
  123000       123000    159.66323   0.80501256     31101851 0.00085654151    424.96059    2804.1134   -2.5770739    26.609608    400.92805            0 
  123500       123500    159.75023   0.81153878     31114394 0.00085619619    424.87922    2805.3285   -2.2023543    24.997029    402.08454            0 
  124000       124000    159.85192    0.6131113     31104854 0.00085645881    423.55496    2805.5195   -1.7195725    24.523408    400.75112            0 
  124500       124500    160.00662   0.42698361     31109755 0.00085632389    420.80836    2805.0782   -2.5327606    25.475114    397.86601            0 
  125000       125000    160.03499    0.5452648     31105954 0.00085642851     419.7875    2804.4801   -3.0452779    24.630263    398.20251            0 
  125500       125500    160.13369    0.8197646     31100146 0.00085658845    418.74933    2804.9126   -3.0554483    24.727278     397.0775            0 
  126000       126000    159.99247    1.0142131     31088464 0.00085691032    420.08043    2804.1393   -3.7899465    25.257936    398.61244            0 
  126500       126500    159.73431     1.414656     31091908 0.00085681541    422.92457    2803.1366   -3.9283085    22.950089    403.90279            0 
  127000       127000    160.37584    1.3654953     31130226 0.00085576077    414.29442    2804.0659   -3.3996758    23.471619    394.22247            0 
  127500       127500    160.26591    1.3507304     31162628 0.00085487097    416.31041    2804.4438   -4.1245557    22.332731    398.10224            0 
  128000       128000    159.87809    1.3973013     31203454 0.00085375246    422.27316    2804.6277    -1.883602    22.500817    401.65594            0 
  128500       128500    160.22882     1.098824     31238958 0.00085278215    417.40352    2804.9844   -3.3198474    24.807761    395.91561            0 
  129000       129000    160.33249    1.1678178     31266687 0.00085202586    415.35316    2804.4787   -3.3457769    23.147627    395.55131            0 
  129500       129500    159.80017    1.1092663     31276786 0.00085175076    423.06449    2804.2579   -3.6439201    22.640123    404.06828            0 
  130000       130000    160.04966    1.0374937     31282870 0.0008515851    419.47867    2804.3897   -3.7416007    23.776665     399.4436            0 
  130500       130500    159.96167    1.1255634     31291869 0.00085134019    421.20327    2804.8032   -3.1266686    25.369853    398.96009            0 
  131000       131000    160.24596    1.0892454     31300114 0.00085111594    415.56055    2803.3967    -4.982069    24.924037    395.61858            0 
  131500       131500    160.24511    1.1015483     31334073 0.00085019354    414.65374    2802.4772   -5.5322502    23.346286     396.8397            0 
  132000       132000    159.73362   0.76067503     31400369 0.00084839849    424.28882    2804.4905   -2.6602817    25.731943    401.21716            0 
  132500       132500     159.9983   0.60618835     31463476 0.00084669685    420.22603    2804.3718   -3.7154379    24.195242    399.74622            0 
  133000       133000    160.39571   0.36378328     31500693 0.00084569651    414.48254    2804.5501   -3.5540079     26.10586    391.93069            0 
  133500       133500    159.59288   0.74707616     31542492 0.00084457583    427.90547      2806.01   -2.9073009    24.780346    406.03243            0 
  134000       134000    160.39076   0.84090521     31593117 0.00084322247    415.29728    2805.2911    -3.377836    22.695276    395.97984            0 
  134500       134500    159.72741    1.3005481     31628399 0.00084228184    425.59079       2805.7     -3.24865    23.417163    405.42227            0 
  135000       135000    159.80048    1.3998188     31655697 0.00084155549    424.66132    2805.8594   -3.1376957    24.266986    403.53203            0 
  135500       135500    159.78403    1.4975973     31668344 0.00084121943    425.14377    2806.0968   -2.5867648    21.423988    406.30655            0 
  136000       136000     159.8422    1.5284378     31671907 0.00084112478    423.14688    2804.9666   -3.5177299    23.853762    402.81085            0 
  136500       136500    160.06198    1.4315002     31682517 0.0008408431    419.62767    2804.7223   -4.6174388    25.166618    399.07849            0 
  137000       137000    160.20663    1.5518145     31697698 0.00084044041    417.75643    2805.0065   -4.0500869    23.553421     398.2531            0 
  137500       137500    160.13684    1.5758241     31706942 0.00084019538    416.88918    2803.0993   -5.9421725    24.199214    398.63214            0 
  138000       138000    160.01518    1.5831548     31754318 0.00083894183     421.9228    2806.3201    -2.669035    24.924649    399.66718            0 
  138500       138500    160.70145    1.4256751     31764441 0.00083867448    409.91529    2804.5388   -3.8438615    23.778986    389.98016            0 
  139000       139000    160.09127    1.2033084     31786470 0.00083809324    420.97909    2806.5102   -2.1682746    26.314989    396.83238            0 
  139500       139500    159.52479    1.2791903     31805644  0.000837588    430.74637    2807.8364   -1.7451067    24.233155    408.25832            0 
  140000       140000    160.26065    1.0417617     31824613 0.00083708876    417.55362    2805.6087   -4.4166679    24.137835    397.83245            0 
  140500       140500    159.93901    1.1286284     31850281 0.00083641417    422.89545    2806.1577   -3.1593037    24.901045    401.15371            0 
  141000       141000    159.77322   0.95088772     31843982 0.0008365796    425.86879    2806.6606   -1.5507131    24.776132    402.64337            0 
  141500       141500    159.95957   0.88187619     31807782 0.0008375317    423.01518    2806.5839   -2.6838796    24.265249    401.43381            0 
  142000       142000    159.86723    0.7584031     31789107 0.00083802374    424.68884    2806.8815   -2.9778654    26.164477    401.50223            0 
  142500       142500    159.85497    0.7756433     31802996 0.00083765775    424.17802    2806.1881   -3.3477907    24.400557    403.12525            0 
  143000       143000    160.05188   0.64176628     31836137 0.00083678576    421.50865    2806.4528   -3.1512411    24.428168    400.23172            0 
  143500       143500    160.25098   0.68073629     31874206 0.00083578634    418.83016    2806.7412   -2.8113047    24.885742    396.75573            0 
  144000       144000    159.61922   0.95015925     31891299 0.00083533838    428.99109    2807.4881   -3.0571397    24.428134     407.6201            0 
  144500       144500    160.06637    0.8776771     31901913 0.00083506047     422.5421    2807.7022   -3.0334872    24.657492     400.9181            0 
  145000       145000    159.74293     1.146239     31919831 0.00083459169    427.76989    2808.1103   -2.7744361    25.114325       405.43            0 
  145500       145500    159.99262    1.3634992     31938169 0.0008341125    423.53724    2807.5984   -2.9436458    25.817668    400.66322            0 
  146000       146000    160.05608    1.2349073     31949038 0.00083382874    423.32452    2808.3313   -2.4590441    25.366877    400.41669            0 
  146500       146500    160.42359    1.3610253     31951077 0.00083377552    418.46086    2808.9439   -2.0067034    24.909085    395.55848            0 
  147000       147000    159.59822    1.5390539     31951601 0.00083376185    430.24201    2808.4261   -1.9630887    23.464264    408.74084            0 
  147500       147500    160.47919    1.2503635     31957145 0.00083361722    416.76404    2808.0756   -2.7092734    24.181464    395.29185            0 
  148000       148000    160.14805    1.4550558     31961114 0.0008335137    421.29442    2807.6717   -3.6143164    24.930432     399.9783            0 
  148500       148500     160.2936    1.2678115     31970477 0.00083326958    418.99672    2807.5428   -3.1397864    22.994312     399.1422            0 
  149000       149000    159.77476     0.993869     31953996 0.00083369936    428.26565    2809.0804   -2.0762777    25.313927      405.028            0 
  149500       149500    160.35418   0.77156492     31928355 0.00083436887    418.99535    2808.4441   -3.2887592     26.27685    396.00726            0 
  150000       150000    160.14843   0.71875917     31937208 0.00083413761    421.71812    2808.1009   -2.7705699    26.728651    397.76004            0 
  150500       150500     159.2463    0.8537495     31976422 0.00083311466    434.43821    2807.3784   -3.2588031    25.828722    411.86829            0 
  151000       151000    160.32166   0.82389289     32037822  0.000831518    419.29552    2808.2597   -2.7876729    25.424082    396.65911            0 
  151500       151500    159.84734    0.6954401     32112393 0.00082958707    425.75801    2807.6544   -3.9972258    26.005694    403.74954            0 
  152000       152000    159.99269   0.77524805     32167796 0.00082815826    424.80186     2808.864   -2.4804242    27.785585     399.4967            0 
  152500       152500    160.14604   0.85207149     32194923 0.00082746046    423.22606    2809.5733   -2.4477119    25.773362    399.90041            0 
  153000       153000    159.48243   0.98949149     32189652 0.00082759596    432.56771    2809.0264   -3.4011307     27.17538    408.79346            0 
  153500       153500    160.11311   0.86162068     32193684 0.00082749231    423.33926    2809.1958   -2.7780937    26.317925    399.79943            0 
  154000       154000    159.70857   0.85037551     32196995 0.0008274072    429.96625    2809.7948   -1.8889297    25.591615    406.26356            0 
  154500       154500    159.26507   0.76156627     32199833 0.00082733428    435.60936    2808.8293    -3.473866    25.754318     413.3289            0 
  155000       155000    160.13561   0.74064688     32182347 0.00082778382    422.12056    2808.3124   -4.6875187    26.636165    400.17191            0 
  155500       155500    160.02068   0.73204443     32166233 0.00082819849    423.98938    2808.4687   -4.4205611    25.574693    402.83525            0 
  156000       156000    159.56909   0.82680539     32166087 0.00082820225    431.82245    2809.5726   -3.3266234    25.059649    410.08943            0 
  156500       156500    160.06764   0.71725672     32179060 0.00082786837    424.18994     2809.369   -2.7407617    25.225494    401.70521            0 
  157000       157000    160.31735   0.81502248     32192543 0.00082752164    420.68968    2809.5897   -2.9346364    23.848373    399.77594            0 
  157500       157500    159.99682   0.84970898     32203495 0.00082724022    424.67512    2808.7988   -3.7812743    26.003444    402.45295            0 
  158000       158000    160.10393    1.0254132     32203525 0.00082723944    423.45604    2809.1758   -3.3660123    27.366628    399.45542            0 
  158500       158500    159.55287     1.449007     32206942 0.00082715168    432.15117    2809.6595   -3.7601067    26.360746    409.55053            0 
  159000       159000    160.07773    1.4436648     32244811 0.00082618025    424.17712    2809.5065   -3.1972321    25.697405    401.67695            0 
  159500       159500    159.80194    1.2851847     32264447 0.00082567743    429.72501    2810.9448   -2.5520927    26.301355    405.97574            0 
  160000       160000     160.0297   0.82161766     32266143 0.00082563403    425.62318    2810.2369   -2.6144601    24.525887    403.71175            0 
  160500       160500    160.47227   0.80092304     32261333 0.00082575713    419.88628    2811.0947   -1.7911232     25.05603    396.62138            0 
  161000       161000    159.94953     1.093602     32250940 0.00082602324    427.50023    2810.9192   -2.8624843    24.235791    406.12692            0 
  161500       161500    159.41205    1.2956767     32243153 0.00082622272    435.17985    2810.5899   -3.0304887    24.600297    413.61004            0 
  162000       162000    160.39416    1.2643705     32242722 0.00082623378    418.56487    2808.6094   -2.2227853    25.176858     395.6108            0 
  162500       162500    159.45875    1.4085758     32263963 0.00082568983    433.91134    2810.0172   -3.2784827    24.725396    412.46442            0 
  163000       163000    159.94856   0.97563288     32267937 0.00082558814     426.5799    2809.9845   -3.1833796    26.133313    403.62996            0 
  163500       163500    160.00091    1.0891687     32266433 0.00082562661    426.32749    2810.5122   -2.8507255    25.486162    403.69205            0 
  164000       164000    159.97212    1.2771657     32255985 0.00082589405    426.21618    2809.9718   -3.8289448    26.493024     403.5521            0 
  164500       164500    160.37856    1.3225392     32254632 0.00082592868    419.53192     2809.344    -3.632417     25.21643    397.94791            0 
  165000       165000    159.73453    1.2837352     32258982 0.00082581733    429.72042    2809.9357   -3.9942792    26.142309    407.57239            0 
  165500       165500    160.04599    1.3223876     32271214 0.00082550429    425.39037    2810.2467   -3.2532481    26.994249    401.64937            0 
  166000       166000    159.87813    1.2936467     32290446 0.00082501263     428.4824    2810.8374   -2.7569316    25.953798    405.28553            0 
  166500       166500     159.8435    1.3356048     32342297 0.00082368997    429.61144    2811.4505   -2.6785053    25.348598    406.94134            0 
  167000       167000    160.36663    1.3536366     32386280 0.00082257135    421.08974     2810.724   -3.8396502    24.428835    400.50056            0 
  167500       167500    159.71399    1.0295123     32419734 0.00082172253    432.19516    2812.1044   -2.2027812     26.54567    407.85227            0 
  168000       168000    160.35956   0.85271541     32435417 0.00082132522    421.67642    2811.2054   -3.5392244    26.749436    398.46621            0 
  168500       168500    159.89656   0.88706449     32433758 0.00082136722    429.02501    2811.6548   -3.1856012    26.269959    405.94065            0 
  169000       169000    159.48435   0.97533873     32411848 0.00082192246    435.11028    2811.5976   -3.2649783    26.798393    411.57687            0 
  169500       169500    159.28841    1.0207633     32397915 0.00082227593    437.66938     2811.237   -2.8529993    25.539415    414.98296            0 
  170000       170000     160.1363      1.00778     32416868 0.00082179518    425.26387     2811.466   -3.7496695    26.836451    402.17709            0 
  170500       170500    159.23393    1.1458371     32453336 0.00082087173    439.81458    2812.5704    -2.545221    26.409513    415.95029            0 
  171000       171000     160.6175    1.0050181     32466389 0.00082054171    417.62123    2810.9938   -4.3179962    25.602411    396.33681            0 
  171500       171500    159.74455    1.1944742     32486957 0.00082002219    431.60989    2811.9745   -3.5296118    25.787499      409.352            0 
  172000       172000     159.9171    1.0016219     32486379 0.00082003678     428.0848    2811.0207   -4.6438086    26.183565    406.54505            0 
  172500       172500     159.8446   0.83381774     32489286 0.00081996341    429.84893    2811.7044   -3.8828215    27.033293    406.69846            0 
  173000       173000      160.179   0.80714078     32469022 0.00082047515    423.79382    2810.6322   -5.3737903     26.31621     402.8514            0 
  173500       173500    159.82108   0.70155116     32448007 0.00082100654    429.93203    2811.4371   -3.8741381    25.417462    408.38871            0 
  174000       174000    160.19622   0.57942049     32410208 0.00082196404    423.80366    2810.8986   -3.9129745     25.62646    402.09018            0 
  174500       174500    159.68029      0.75895     32407621 0.00082202967    433.03037    2812.4375   -1.9181311    26.673124    408.27538            0 
  175000       175000    160.11855   0.76588863     32426719 0.00082154553    427.63491    2813.5725   -1.8978688    27.611475     401.9213            0 
  175500       175500     159.8289   0.98460105     32429771 0.00082146822    431.10086    2812.7225   -3.3168604    27.268765    407.14896            0 
  176000       176000    159.98379    1.1387881     32461577 0.00082066333    427.95259    2811.8821   -4.1643469    27.181779    404.93516            0 
  176500       176500    160.22454    1.2862104     32512094 0.0008193882    425.10638    2812.6233    -2.874792    25.040267    402.94091            0 
  177000       177000    159.61156      1.45583     32542125 0.00081863203    433.91881    2812.3018     -2.67586    25.935842    410.65882            0 
  177500       177500    160.06704     1.222803     32572187 0.00081787649    428.11123    2813.2813   -2.5654827    25.889127    404.78759            0 
  178000       178000    160.23531     1.025015     32579738 0.00081768694    424.45806    2812.1355   -3.5143192    24.786333    403.18605            0 
  178500       178500    160.07038   0.84960864     32593100 0.00081735171     426.7105    2811.9304   -4.4379077    27.249141    403.89927            0 
  179000       179000    159.95816   0.64123555     32628934 0.00081645406    429.71401    2813.2616   -2.9571702    27.289684     405.3815            0 
  179500       179500    159.72301   0.68330844     32671117 0.00081539992    432.64875    2812.6924   -3.3203088    27.812169    408.15689            0 
  180000       180000    159.91232   0.87990542     32731031 0.00081390733     431.0094    2813.8739    -2.447784    27.136892     406.3203            0 
  180500       180500    159.70654     0.854357     32783057 0.00081261567    433.98695    2813.7852   -3.0367389    28.326293     408.6974            0 
  181000       181000    159.84545   0.80822037     32822966 0.00081162763    430.86731    2812.7354    -3.900126    26.905783    407.86165            0 
  181500       181500     160.4842   0.82338493     32864990 0.00081058982     422.2114    2813.5976   -2.8784621    27.274996    397.81487            0 
  182000       182000     159.6912     1.088052     32913428 0.00080939688     434.8279    2814.3975   -2.2379516    26.910794    410.15506            0 
  182500       182500     160.3664   0.92374257     32955108 0.0008083732    424.31205     2813.943   -3.1715727     27.67372    399.80991            0 
  183000       183000    159.68158   0.90941327     33010211 0.00080702379    434.24443    2813.6708   -3.0989312    29.024612    408.31875            0 
  183500       183500    159.89821   0.81465944     33063934 0.00080571253      432.306    2814.9603   -1.5901657    28.172151    405.72401            0 
  184000       184000     159.6146   0.81875469     33105850 0.00080469241    436.23357    2814.6618   -2.6410247    27.531115    411.34347            0 
  184500       184500    160.45208   0.63367556     33134647 0.00080399305    423.04595    2813.9535   -4.3145384    26.963919    400.39657            0 
  185000       185000    159.83928   0.82131191     33202165 0.00080235809    432.92036    2814.6966   -2.9916833     27.50366    408.40839            0 
  185500       185500    159.88199   0.71548805     33266931 0.00080079601    432.44197    2814.8546   -2.7078503     28.44453    406.70529            0 
  186000       186000    159.98313    1.0348416     33311291 0.00079972961    431.00476    2814.9245   -2.2374604     26.34463    406.89759            0 
  186500       186500    159.91086   0.97977326     33344441 0.00079893456    432.83797    2815.6808   -2.6266223    27.385275    408.07932            0 
  187000       187000     159.9919    1.0453909     33351754 0.00079875936    431.21145    2815.2619   -2.9465844    28.062515    406.09552            0 
  187500       187500    160.11737   0.99251883     33349227 0.00079881989      428.563     2814.483   -3.8647272    27.747708    404.68002            0 
  188000       188000    159.76462    1.1135679     33362056 0.0007985127    435.11215    2815.7758   -3.4070635    27.444457    411.07475            0 
  188500       188500     160.2976    1.1242532     33385947 0.00079794131    427.06264    2815.6682   -3.3841756       26.608    403.83881            0 
  189000       189000    159.73699   0.88693314     33413596 0.00079728103     435.7858    2816.0378   -2.7085818    27.664346    410.83004            0 
  189500       189500    159.76274   0.58333512     33440246 0.00079664564    435.31111    2815.9467   -2.7788174    27.861078    410.22885            0 
  190000       190000    159.86248    0.6878946     33452362 0.00079635709    433.79865    2815.9206    -3.702027    27.513974     409.9867            0 
  190500       190500    159.85155   0.86229446     33465665 0.00079604053    434.15207    2816.1111   -2.7527461    25.809695    411.09512            0 
  191000       191000    159.74428    1.1305746     33464395 0.00079607075    436.11615    2816.4768   -3.0162255    26.894419    412.23796            0 
  191500       191500    159.60163    1.1434783     33458353 0.0007962145    438.31079    2816.5458   -2.7562471    28.182843    412.88419            0 
  192000       192000    160.51016    1.1439404     33441734 0.00079661019     424.0044    2815.7775   -3.0916961    26.123932    400.97216            0 
  192500       192500    159.79164    1.2009398     33461223 0.00079614622     434.8755    2815.9419   -3.3139001    26.102231    412.08717            0 
  193000       193000    160.22843    1.0716449     33489148 0.00079548234    427.80189    2815.3769   -4.1044827    25.984773     405.9216            0 
  193500       193500    160.01387   0.77192176     33524380 0.00079464634    430.99197    2815.3698   -3.5772017    26.944897    407.62427            0 
  194000       194000    160.09154   0.63808587     33549407 0.00079405355    429.63484      2815.17   -4.5581457    28.577018    405.61597            0 
  194500       194500    159.99748   0.78374585     33584540 0.0007932229    431.17419    2815.3077   -3.0497059    29.187045    405.03685            0 
  195000       195000    159.80928   0.93893689     33640671 0.00079189936     435.0004    2816.3295   -3.2375882    27.732917    410.50508            0 
  195500       195500    160.02499   0.66194225     33681105 0.0007909487    431.48314    2816.0267   -3.6316393    27.855737    407.25905            0 
  196000       196000    159.97987   0.36863969     33728165 0.00078984511    433.30603    2817.1772   -2.5364115    29.675827    406.16662            0 
  196500       196500    159.90102   0.28844285     33738996 0.00078959153    434.41629    2817.1125   -2.6757902    29.192934    407.89915            0 
  197000       197000     160.0791   0.17979827     33729189 0.00078982112    431.11556    2816.4654   -3.5562587    28.409343    406.26248            0 
  197500       197500    159.71666   0.19363342     33741740 0.00078952733    436.00359    2815.9527    -3.070923    28.963811     410.1107            0 
  198000       198000    159.44015   0.37342848     33738701 0.00078959844    440.25834    2816.0871   -3.8528295    28.601785    415.50938            0 
  198500       198500    159.52054   0.48373134     33733113 0.00078972924    439.04702    2816.0737   -3.9252637    28.709483     414.2628            0 
  199000       199000    159.90498   0.56364914     33750910 0.00078931282    433.21134    2815.9666   -4.4492197    28.551506    409.10905            0 
  199500       199500    159.98957   0.80105063     33786967 0.00078847047    433.16722     2817.183   -2.6888286     26.86095     408.9951            0 
  200000       200000     160.1821   0.96056683     33809516 0.0007879446    430.07346     2816.958   -3.3099377    26.471142    406.91225            0 
  200500       200500    159.79351    1.0761098     33863956 0.0007866779    436.61416    2817.7084   -2.5013224      27.8026    411.31289            0 
  201000       201000    159.98939     1.089819     33917917 0.00078542635    433.92466    2817.9377   -1.5187306    27.830959    407.61243            0 
  201500       201500    159.90487    1.2206972     33972221 0.00078417087    433.56618    2816.3198   -3.9408035    25.781773    411.72521            0 
  202000       202000    160.04945   0.98260039     34035744 0.00078270732    432.22114    2817.1291   -2.9161964     27.58413    407.55321            0 
  202500       202500    160.10886    1.1969999     34069587 0.00078192982    431.43816    2817.2314   -2.6694159    27.685386    406.42219            0 
  203000       203000      160.564    1.0691749     34088368 0.00078149902     423.3347      2815.91   -5.3696248    26.026717    402.67761            0 
  203500       203500    159.62244    1.1379112     34141596 0.00078028063    438.90788    2817.4529   -3.0162322    26.376788    415.54732            0 
  204000       204000    159.67824    1.1978738     34201468 0.0007789147    438.95556    2818.3322   -2.1622952    27.176769    413.94108            0 
  204500       204500    160.24869    1.1203954     34249579 0.00077782055    430.46366    2818.3405   -2.5683423    27.621481    405.41053            0 
  205000       205000    160.50097   0.93200381     34279208 0.00077714823    427.05703    2818.6932   -2.0438952    27.995934    401.10499            0 
  205500       205500    159.56914    0.8299316     34280068 0.00077712873    440.81809     2818.569   -2.3102013    28.467382    414.66091            0 
  206000       206000    159.78133   0.57630438     34284670 0.00077702442    438.30915    2819.2218   -2.1859211    28.102347    412.39272            0 
  206500       206500    160.33005   0.56392202     34276670 0.00077720577    429.00903    2818.0982   -3.4052759    28.801379    403.61293            0 
  207000       207000    159.95432   0.74659863     34275633 0.00077722928     435.1155    2818.6059   -3.1650079    27.218698    411.06181            0 
  207500       207500    160.02354   0.80912779     34297608 0.0007767313    434.77666    2819.2985   -2.1639318    28.623498    408.31709            0 
  208000       208000    160.15331   0.79475764     34329622 0.00077600696    431.81745    2818.2731   -3.4706291    26.862886     408.4252            0 
  208500       208500    159.72044   0.89295135     34358651 0.00077535133    438.48287    2818.4882   -3.3717633    27.593932     414.2607            0 
  209000       209000    160.31304    0.8513835     34405851 0.00077428765     430.6715    2819.5073   -2.1724627    28.847302    403.99666            0 
  209500       209500    159.71151   0.94197537     34454429 0.00077319598    439.64992    2819.5222   -2.3642394    28.202452     413.8117            0 
  210000       210000    160.16228    1.0569991     34499134 0.00077219405    434.31506    2820.9043   -1.8550367    27.950887    408.21921            0 
  210500       210500    159.97175   0.81043534     34529092 0.00077152408    437.30744    2821.0575   -1.9847706    29.079635    410.21258            0 
  211000       211000    159.96913    0.9062592     34562956 0.00077076815    436.57123    2820.2823   -2.2120926    28.506683    410.27664            0 
  211500       211500    160.45935   0.86308896     34584004 0.00077029907     429.1187    2820.1346   -2.8185781    28.130865    403.80641            0 
  212000       212000     159.7108    1.1630946     34628836 0.00076930179    440.05423     2819.916   -3.4823824    28.616418    414.92019            0 
  212500       212500    160.32761    1.2515792     34670603 0.00076837503    430.32561    2819.3785   -3.2562852    28.822074    404.75982            0 
  213000       213000    159.86219    1.4993735     34745752 0.00076671318    438.63804    2820.7557   -3.3511033    27.015496    414.97365            0 
  213500       213500    159.56657    1.3431958     34804475 0.00076541955    442.62227    2820.3347   -3.5649668    27.767164    418.42007            0 
  214000       214000    160.07869    1.0222867     34841230 0.00076461209    434.20708    2819.5507   -3.7790092     29.61405    408.37204            0 
  214500       214500    159.77799   0.82153937     34873636 0.00076390159    440.64707    2821.5101   -3.3843792    29.157487    414.87396            0 
  215000       215000    159.96029   0.62744636     34887670 0.0007635943    436.81327    2820.3926   -2.9125744     29.36441    410.36143            0 
  215500       215500    159.75954   0.77390651     34905454 0.00076320524    441.12886    2821.7168   -2.7041708    28.993661    414.83937            0 
  216000       216000     160.1088   0.93284734     34917933 0.0007629325     435.2676      2821.06   -2.8422011    30.799048    407.31075            0 
  216500       216500    160.39555    1.0078753     34934206 0.00076257711    431.31544    2821.3807   -3.4499338    28.100136    406.66524            0 
  217000       217000     160.0277    1.0662453     34979287 0.00076159431    436.88123    2821.4651   -2.6021802     28.06427    411.41914            0 
  217500       217500    159.88325   0.98029632     35021871 0.00076066826    439.30266     2821.734   -2.3554073    28.456467     413.2016            0 
  218000       218000    160.27937    1.0675256     35070466 0.00075961425    434.04079    2822.3747   -3.2906771    27.348037    409.98343            0 
  218500       218500    159.90808   0.94362466     35105064 0.00075886562    437.88136    2820.6828   -3.1988506    28.468233    412.61198            0 
  219000       219000    160.24172   0.85996212     35130403 0.00075831826       433.34     2821.113   -3.9574706    29.055375     408.2421            0 
  219500       219500    160.12719   0.85605213     35134417 0.00075823161    434.89011    2820.9565   -4.2457553    27.748799    411.38706            0 
  220000       220000    159.92588   0.91390361     35136177 0.00075819363    436.93796    2820.0046   -3.3333202    27.174318    413.09697            0 
  220500       220500    159.80637   0.75973791     35214643 0.00075650422    440.39896    2821.6848   -3.4567139    29.440532    414.41515            0 
  221000       221000    160.22793    0.4467901     35277884 0.00075514807    433.81737    2821.3848   -3.7746681    30.125344    407.46669            0 
  221500       221500    159.68177   0.50861749     35335390 0.00075391911    442.20619    2821.6353   -3.7833225    28.938711    417.05081            0 
  222000       222000    159.82912   0.60072955     35370790 0.00075316458    439.47353    2821.0984   -3.0933629    28.103956    414.46294            0 
  222500       222500    159.83929   0.61874772     35401979 0.00075250104    441.97889    2823.7552   -2.0253571    29.665092    414.33916            0 
  223000       223000    159.62003   0.71506532     35409610 0.00075233886    444.47074    2822.9799   -2.9498687    30.156974    417.26363            0 
  223500       223500    160.16364   0.72949965     35412634 0.00075227462    436.03781    2822.6474   -3.0047686    29.551138    409.49144            0 
  224000       224000     160.5141    0.8152036     35435783 0.00075178319    430.30841    2822.1401   -2.6178381    29.628623    403.29763            0 
  224500       224500    159.32561    1.0639592     35465208 0.00075115945    448.19796      2822.32   -3.6100542    29.924126    421.88389            0 
  225000       225000    160.11903   0.97576609     35481551 0.00075081346    435.67417     2821.619   -3.7799043    31.307608    408.14646            0 
  225500       225500    160.16781   0.80329815     35484204 0.00075075733    435.45675    2822.1284   -3.9393491    30.663699     408.7324            0 
  226000       226000    159.57896   0.84023728     35469888 0.00075106033     443.1407    2821.0379    -4.186439    30.422016    416.90512            0 
  226500       226500    159.84109   0.79879766     35489301 0.00075064949     440.6245    2822.4277   -3.7125899     30.46672    413.87037            0 
  227000       227000    159.68048    1.0461324     35512086 0.00075016787    443.51569    2822.9255   -3.7422253    28.511624    418.74629            0 
  227500       227500     159.7811    1.0404426     35516576 0.00075007303    440.35646    2821.2658   -4.5546816    28.753772    416.15737            0 
  228000       228000    160.11591    1.2029652     35530730 0.00074977423    436.10832    2822.0066   -4.4133592    30.594461    409.92722            0 
  228500       228500    159.83468    1.2062308     35536404 0.00074965452    441.07823     2822.786   -3.4120862    28.923861    415.56646            0 
  229000       229000    160.20209    1.2780624     35538088 0.00074961901    436.01693    2823.1994   -3.5085856    27.805894    411.71962            0 
  229500       229500    160.37197    1.0794047     35532328 0.00074974051    432.61079    2822.3246   -3.1633225    29.116906    406.65721            0 
  230000       230000    159.70999   0.98305522     35537188 0.00074963799    443.43795    2823.2877   -3.4751577    30.951009     415.9621            0 
  230500       230500    159.75456   0.95641551     35542238 0.00074953148    442.04557    2822.5593   -3.0487754    30.141313    414.95303            0 
  231000       231000    160.16267   0.96421715     35572432 0.00074889527    436.80342    2823.3985   -3.1510405    29.953083    410.00138            0 
  231500       231500    160.12026   0.73064676     35618012 0.00074793692    437.29688      2823.26   -3.4031389    30.643762    410.05626            0 
  232000       232000    159.76233   0.92699821     35632806 0.00074762639    442.19223    2822.8218   -3.7870092    29.596067    416.38317            0 
  232500       232500     160.5202   0.94920533     35640828 0.00074745812    431.86041     2823.783   -3.7593418     29.32779    406.29197            0 
  233000       233000    159.95734    0.9022603     35654653 0.00074716829    438.44928    2821.9846   -4.6766598    30.380222    412.74571            0 
  233500       233500    160.04091   0.94225866     35678494  0.000746669    438.78196    2823.5627   -3.0369907    30.625056     411.1939            0 
  234000       234000    159.45538    1.0125739     35683081 0.00074657303     448.5893     2824.645   -1.4936055    30.573432    419.50948            0 
  234500       234500    160.47149   0.89434596     35695965 0.00074630357    433.26507    2824.4619    -3.078413    30.340635    406.00284            0 
  235000       235000    159.68515    1.0369974     35720983 0.00074578088    444.51481    2823.9944   -2.0712323    29.334115    417.25193            0 
  235500       235500    159.39036    1.0274076     35773777 0.00074468027    451.83717     2826.924   -1.5131425    30.555448    422.79486            0 
  236000       236000    160.08039   0.99263652     35829748 0.00074351698    440.82696    2826.1959    -2.083213    29.584343    413.32583            0 
  236500       236500     159.5663    1.0506143     35892742 0.00074221206    448.31534    2826.0239   -2.4852696    29.492952    421.30766            0 
  237000       237000    160.33539   0.80242918     35929925 0.00074144396    437.07612    2826.2449   -2.8607836    30.703743    409.23316            0 
  237500       237500    160.33496   0.93642098     35940480 0.00074122622    436.58983    2825.7523   -2.8964143    30.228462    409.25778            0 
  238000       238000    159.82539    1.1754397     35928674 0.00074146978    444.90984     2826.479   -2.4138684    29.544555    417.77915            0 
  238500       238500    160.14726    1.2261615     35904464 0.00074196974     438.5113    2824.8767   -2.9546229    29.666465    411.79946            0 
[...]
  942000       942000    159.72058    1.1218542     44967377 0.00059243006    507.47762    2887.4851   -2.5648746    60.102327    449.94016            0 
  942500       942500    160.26646    1.1508602     44916288 0.0005931039    499.43166    2887.5733    -2.315191    60.692752     441.0541            0 
  943000       943000    160.43366   0.99323942     44850602 0.00059397254    496.01738    2886.6505   -3.8035777    60.737049    439.08391            0 
  943500       943500    160.28619    1.0458003     44810482 0.00059450434    498.76222    2887.1979   -2.3261502    59.593473    441.49489            0 
  944000       944000    159.92046   0.97819565     44801536 0.00059462304    504.28149    2887.2674   -2.4444931    62.264582     444.4614            0 
  944500       944500    159.84598    1.0209908     44816477 0.00059442481    505.77718    2887.6532   -1.7176719    64.024033    443.47082            0 
  945000       945000    160.13767    1.1111963     44838582 0.00059413176    501.55835     2887.781   -2.0678324    60.378729    443.24745            0 
  945500       945500    159.94827    1.0539456     44852188 0.00059395154    504.28738    2887.6876   -2.4766088    58.616926    448.14706            0 
  946000       946000    159.95288   0.92449323     44855250 0.00059391099    502.65026    2886.1192   -3.9604729    60.278944    446.33179            0 
  946500       946500    159.72646   0.87305289     44863704 0.00059379908    507.02836    2887.1234   -2.4573007    62.875369    446.61029            0 
  947000       947000    159.33173   0.85096955     44867056 0.00059375471    512.99724    2887.2105   -3.0758649    63.567552    452.50555            0 
  947500       947500    160.23414   0.79274378     44926160 0.00059297357    499.41573    2887.0757   -2.9307086    62.511661    439.83478            0 
  948000       948000    160.28854   0.77444101     44978557 0.0005922828    498.49691    2886.9676   -3.0113049    60.927722    440.58049            0 
  948500       948500    159.47423    1.0421252     45003157 0.00059195904    511.66505    2888.0017   -2.7542372    64.501068    449.91822            0 
  949000       949000    159.78754   0.80451707     44999167 0.00059201153    507.24475      2888.25   -2.0455206    62.279685    447.01059            0 
  949500       949500    159.81591   0.99554552     44992962 0.00059209318    506.58696     2888.015   -2.8526951     60.34438    449.09527            0 
  950000       950000    160.01638    1.1674772     44972254 0.00059236581    502.75306    2887.1683   -2.8099379    60.990968    444.57203            0 
  950500       950500    159.60894     1.429167     44951475 0.00059263964    509.09456    2887.4384   -2.7716828    60.803636    451.06261            0 
  951000       951000    160.10389    1.3544448     44916669 0.00059309887    503.10151    2888.8207   -1.3454677    60.845312    443.60166            0 
  951500       951500     159.7583    1.4659577     44880002 0.00059358344    507.40681    2887.9763   -2.1077851    61.641266    447.87333            0 
  952000       952000    160.00898    1.3159807     44854385 0.00059392245      503.637    2887.9419   -2.5987583    61.147787    445.08797            0 
  952500       952500    160.53136     1.132259     44831947 0.0005942197    495.06868    2887.1577   -2.6877832    58.326449    439.43001            0 
  953000       953000    159.94713   0.95894292     44833598 0.00059419781    504.38125    2887.7646   -2.5034551    64.081332    442.80337            0 
  953500       953500    160.31026   0.85939061     44879447 0.00059359078    499.11694    2887.9113   -2.4617942    62.786182    438.79255            0 
  954000       954000    159.74539    0.7406946     44953712 0.00059261015    508.54358    2888.9207  -0.86589983     61.11458     448.2949            0 
  954500       954500    159.89796   0.60308109     45021969 0.0005917117    505.83558    2888.4862   -2.0716561    62.967477    444.93976            0 
  955000       955000    160.21327   0.79364837     45065546 0.00059113953     501.6358    2888.9849   -1.7792083    59.773789    443.64122            0 
  955500       955500    159.91214   0.96297253     45069188 0.00059109176    505.95032    2888.8123   -2.5753033    62.140504    446.38512            0 
  956000       956000    159.69991    0.9674613     45057351 0.00059124705    508.74005    2888.4396   -2.2493372    62.970096     448.0193            0 
  956500       956500    159.98809   0.97801823     45056236 0.00059126168    504.91719    2888.9108  -0.76119851    60.378925    445.29946            0 
  957000       957000    160.05926   0.82114242     45071711 0.00059105867    504.24504    2889.2992   -1.9959715    65.291291    440.94972            0 
  957500       957500    159.63356   0.83857746     45080582 0.00059094237    510.14642    2888.8572   -2.4136928    64.359093    448.20102            0 
  958000       958000    159.75476   0.78485069     45096493 0.00059073387    508.68301    2889.1997   -1.8681261     65.42824     445.1229            0 
  958500       958500    159.78317   0.87805604     45101517 0.00059066807    508.45252    2889.3926   -2.3416643    61.544912    449.24928            0 
  959000       959000    159.88035   0.96777383     45116994 0.00059046544    506.53653    2888.9247   -2.0728567    59.325146    449.28424            0 
  959500       959500    160.45721   0.96688694     45126367 0.0005903428    497.99647    2888.9805   -2.3979612    61.727946    438.66649            0 
  960000       960000    159.67023     1.145367     45133695 0.00059024696    509.43441    2888.6916   -2.6359784    59.317252    452.75313            0 
  960500       960500    160.11891    1.0114458     45155895 0.00058995677    502.71243    2888.6554   -2.4209271    62.611208    442.52215            0 
  961000       961000    160.19148    0.9389845     45165837 0.00058982691    501.51404    2888.5385   -2.5462502     60.83693    443.22336            0 
  961500       961500    159.65018    1.1050756     45182300 0.00058961199    509.78391    2888.7423   -2.3074839    60.919265    451.17213            0 
  962000       962000    160.50061     1.015553     45200498 0.00058937462    495.78917      2887.42   -3.6143417    61.371708     438.0318            0 
  962500       962500    160.35848   0.98725578     45217036 0.00058915905    499.20493    2888.7178      -2.5832    60.826899    440.96124            0 
  963000       963000    159.88023    1.1705175     45211261 0.00058923431    505.44397    2887.8304   -3.8252562    61.699825     447.5694            0 
  963500       963500    159.28551    1.1100121     45217240 0.0005891564     515.7541    2889.2785   -2.3849392    63.088659    455.05037            0 
  964000       964000    160.10325    1.0118274     45222249 0.00058909113    503.18913    2888.8987   -2.6687451    60.826015    445.03186            0 
  964500       964500    160.35271   0.75490877     45228946 0.0005890039    499.33725    2888.7641   -2.3364993    62.116736    439.55701            0 
  965000       965000    159.60885   0.99115352     45235650 0.00058891662    511.64223    2889.9848   -1.5174788    61.729898    451.42981            0 
  965500       965500    160.28849    1.1138026     45236137 0.00058891027    500.92877    2889.3986   -1.9434249    60.382483    442.48972            0 
  966000       966000    160.01541    1.1040785     45238733 0.00058887647    504.25159    2888.6523   -2.2695075    60.926138    445.59496            0 
  966500       966500    160.26674    1.1452795     45262118 0.00058857224    499.92329    2888.0691   -3.0111201    60.319951    442.61446            0 
  967000       967000     160.0492    1.0510235     45281028 0.00058832643     502.4554    2887.3597   -4.2978575    61.437833    445.31543            0 
  967500       967500    160.09431    1.1117382     45283109 0.0005882994    503.21731    2888.7937   -2.7572699     63.66758      442.307            0 
  968000       968000    160.19319    1.2529864     45239835 0.00058886214    500.89511     2887.945   -4.0389264    60.670392    444.26364            0 
  968500       968500    160.15263    1.5141272     45206402 0.00058929764     502.0951    2888.5406   -2.9812533    59.432187    445.64417            0 
  969000       969000    159.57972    1.5742846     45194663 0.0005894507    511.68669    2889.5951  -0.28699681     61.65486    450.31882            0 
  969500       969500    160.02769    1.5126162     45228489 0.00058900986    503.94093    2888.5247   -2.4073423    62.450347    443.89792            0 
  970000       970000    159.93406    1.3739488     45234073 0.00058893714    505.31881    2888.5073   -2.9361681      61.8846    446.37038            0 
  970500       970500    160.08374    1.2769657     45249141 0.00058874103    503.69777    2889.1167   -2.5716084     60.03546    446.23392            0 
  971000       971000     159.7152    1.2647092     45244036 0.00058880746    509.27736    2889.2046   -2.8728274    63.499241    448.65094            0 
  971500       971500     159.9273    1.0285658     45210801 0.00058924029    506.54081    2889.6287   -2.1162254    61.875387    446.78165            0 
  972000       972000    160.48075   0.90604361     45172605 0.00058973854    496.73832    2888.0731   -3.3501507    62.624038    437.46443            0 
  972500       972500    159.64182    1.1235203     45169205 0.00058978293    510.75032    2889.5841   -1.7573049    61.073214    451.43441            0 
  973000       973000    160.21348    1.3165394     45177485 0.00058967484    502.34428    2889.6964   -2.0781565      60.5275    443.89494            0 
  973500       973500    160.46164    1.1762869     45202128 0.00058935335    498.70957    2889.7596     -2.10046    62.496794    438.31323            0 
  974000       974000    159.57153    1.1089768     45213928 0.00058919954    511.30501    2889.0914   -3.2708649     63.38003    451.19585            0 
  974500       974500    160.26387    1.1439635     45244069 0.00058880703    500.54325    2888.6464   -3.1258763    64.065382    439.60374            0 
  975000       975000    159.70727    1.1459486     45273260 0.00058842738    509.53795    2889.3471    -2.204933     60.19853    451.54435            0 
  975500       975500    160.33217    1.1295695     45272463 0.00058843774    499.37582    2888.4967   -2.6280278    59.392292    442.61156            0 
  976000       976000    159.89071    1.2760902     45286119 0.0005882603    507.33068    2889.8733   -2.5172673    62.056027    447.79192            0 
  976500       976500    159.63858    1.1475153     45287785 0.00058823865    509.99194    2888.7775   -2.1411301    63.483241    448.64983            0 
  977000       977000    160.08942    1.1567961     45251753 0.00058870704    503.67423    2889.1777   -2.8782052    62.526346    444.02608            0 
  977500       977500    159.57464   0.98174957     45193731 0.00058946286    509.87996    2887.7128   -3.1682757    62.767017    450.28122            0 
  978000       978000    160.48524   0.86590849     45158153 0.00058992727    496.79142    2888.1932   -3.1745484    58.988782    440.97719            0 
  978500       978500    160.13822    0.8205632     45149293 0.00059004304    502.35991    2888.5906   -3.3211537     62.26482    443.41625            0 
  979000       979000    159.87355   0.64574129     45170977 0.00058975979    505.43269    2887.7196   -3.3405983    63.312227    445.46106            0 
  979500       979500    159.87649   0.65969508     45232389 0.00058895907    505.83999    2888.1707   -2.9894891    61.646361    447.18311            0 
  980000       980000    159.80092   0.55468425     45310478 0.00058794405    507.19775    2888.4024   -3.7231936    65.104861    445.81608            0 
  980500       980500    160.03621   0.68127758     45356302 0.00058735004    504.00345    2888.7141   -2.7694538     62.08372    444.68918            0 
  981000       981000    159.59902    0.6071811     45385080 0.00058697762    511.30007    2889.4962   -2.1540354     60.79731     452.6568            0 
  981500       981500    160.37223   0.54237922     45387949 0.00058694051    500.45836     2890.176   -1.7267852    62.426745     439.7584            0 
  982000       982000    159.75279   0.65117941     45381900 0.00058701875    508.97656     2889.464   -1.7399801    62.700751    448.01578            0 
  982500       982500     159.3582   0.70331394     45358937 0.00058731592    515.82679    2890.4344   -1.6105725    61.022226    456.41513            0 
  983000       983000    160.37902   0.65434468     45313188 0.00058790888    500.28069    2890.0997   -1.6158918    63.904929    437.99165            0 
  983500       983500    159.63168   0.68986391     45302561 0.0005880468    510.30569    2888.9884   -2.8230306    66.873592    446.25513            0 
  984000       984000    159.98954   0.63353144     45313058 0.00058791057    505.03221    2889.0475   -1.6842018    61.509636    445.20677            0 
  984500       984500     159.4909   0.70398814     45357811 0.0005873305    512.30032    2888.8853   -2.5455755    61.890692     452.9552            0 
  985000       985000    159.69061   0.43850029     45422097 0.00058649925    510.67759    2890.2384   -1.9872061    66.919147    445.74564            0 
  985500       985500    160.14457   0.46325998     45448364 0.00058616028    502.92489    2889.2502   -2.5919922    62.937943    442.57894            0 
  986000       986000    159.76251   0.51604189     45475706 0.00058580786    508.47078     2889.103   -2.7346189     63.07794    448.12746            0 
  986500       986500    160.18809   0.53005817     45477360 0.00058578655    503.78232    2890.7562   -1.5025958    64.979435    440.30548            0 
  987000       987000    159.58662   0.77813098     45453995 0.00058608767    512.04476    2890.0561   -2.1295368    60.087967    454.08633            0 
  987500       987500    160.00049    0.6368522     45435562 0.00058632544    505.90536    2890.0838   -1.7750063    63.092613    444.58775            0 
  988000       988000    160.15753   0.80998342     45434954 0.00058633329    502.95168    2889.4701   -2.8560894    62.631048    443.17672            0 
  988500       988500    159.90915   0.93959483     45452381 0.00058610848    506.66618    2889.4835   -2.8266162    62.195261    447.29754            0 
  989000       989000    160.16504   0.91382351     45473284 0.00058583906    501.37624    2888.0066   -4.5337335    64.108129    441.80184            0 
  989500       989500    159.96683   0.89822591     45489982 0.00058562401    504.69138    2888.3682   -3.4544449    65.762565    442.38326            0 
  990000       990000    160.15236      0.90121     45446464 0.00058618479    500.40096    2886.8424   -4.3087234    61.847242    442.86244            0 
  990500       990500    160.11572    1.0139191     45413517 0.00058661005    501.16937    2887.0648   -3.8134337    63.205025    441.77778            0 
  991000       991000    159.98699    1.0941946     45406416 0.0005867018    504.73051    2888.7078   -3.1210834    62.820723    445.03087            0 
  991500       991500    159.56664    1.1766742     45437522 0.00058630015    512.45395    2890.1675   -2.3098333    63.415828    451.34796            0 
  992000       992000    160.25139    1.2261598     45486554 0.00058566815      500.516    2888.4331   -3.7125894     64.96078    439.26781            0 
  992500       992500    159.80936     1.278365     45526060 0.00058515993    507.88786    2889.2183   -2.9232505    63.200726    447.61038            0 
  993000       993000    159.92439    1.1216458     45542533 0.00058494827    506.99531    2890.0397   -2.7769591    59.807254    449.96502            0 
  993500       993500    160.49361   0.87998249     45521523 0.00058521825     497.4011    2888.9276   -3.4367285    62.536618    438.30121            0 
  994000       994000    160.19762   0.75721042     45492965 0.00058558562     502.3659    2889.4817   -2.7016485    64.326826    440.74072            0 
  994500       994500    159.98257   0.74554281     45450001 0.00058613917    506.58499    2890.4963   -1.8079084    64.226725    444.16618            0 
  995000       995000    159.60961   0.93331924     45409155 0.00058666641    513.21813     2891.572   -1.1928109    64.512927    449.89802            0 
  995500       995500    159.48283    0.8834198     45388857 0.00058692877    514.76726    2891.2319   -0.3866493    64.455699    450.69821            0 
  996000       996000    159.92461   0.96641832     45374899 0.00058710931    507.55778    2890.6056   -2.0405101    61.967324    447.63097            0 
  996500       996500     160.0228   0.89512431     45356516 0.00058734727    505.11376    2889.6246   -2.5438101    64.394737    443.26284            0 
  997000       997000    159.81786   0.91995806     45359166 0.00058731296    508.98314    2890.4402   -2.2053747    64.980339    446.20817            0 
  997500       997500    160.41287   0.92372014     45371374 0.00058715493    500.54159    2890.8649   -1.7229465    62.411382    439.85315            0 
  998000       998000     160.1035   0.97807247     45384366 0.00058698685    504.76608    2890.4795   -2.3561615    62.429394    444.69285            0 
  998500       998500    159.97874    1.0693567     45405566 0.00058671278     506.4707     2890.325   -2.0233009    64.941854    443.55215            0 
  999000       999000    160.09788   0.92049353     45420649 0.00058651795    505.53535     2891.165   -1.4846346    61.053352    445.96663            0 
  999500       999500    159.52141   0.98982015     45424041 0.00058647415    513.89043      2890.93  -0.93855609    65.459051    449.36993            0 
 1000000      1000000    160.15081    0.7454657     45417599 0.00058655734    504.22955    2890.6479    -2.058668    68.678315    437.60991            0 
 1000002      1000002    160.32222   0.92322173     45417501 0.0005865586    501.33215    2890.3048   -2.0033001    63.293607    440.04184            0 
Loop time of 11043 on 1 procs for 1000000 steps with 5000 atoms

Performance: 7.824 ns/day, 3.068 hours/ns, 90.555 timesteps/s
100.0% CPU use with 1 MPI tasks x no OpenMP threads

MPI task timing breakdown:
Section |  min time  |  avg time  |  max time  |%varavg| %total
---------------------------------------------------------------
Pair    | 282.94     | 282.94     | 282.94     |   0.0 |  2.56
Bond    | 351.52     | 351.52     | 351.52     |   0.0 |  3.18
Kspace  | 1651       | 1651       | 1651       |   0.0 | 14.95
Neigh   | 58.088     | 58.088     | 58.088     |   0.0 |  0.53
Comm    | 9.5996     | 9.5996     | 9.5996     |   0.0 |  0.09
Output  | 2.7555     | 2.7555     | 2.7555     |   0.0 |  0.02
Modify  | 8676.3     | 8676.3     | 8676.3     |   0.0 | 78.57
Other   |            | 10.88      |            |       |  0.10

Nlocal:           5000 ave        5000 max        5000 min
Histogram: 1 0 0 0 0 0 0 0 0 0
Nghost:           1065 ave        1065 max        1065 min
Histogram: 1 0 0 0 0 0 0 0 0 0
Neighs:          12387 ave       12387 max       12387 min
Histogram: 1 0 0 0 0 0 0 0 0 0

Total # of neighbors = 12387
Ave neighs/atom = 2.4774
Ave special neighs/atom = 4
Neighbor list builds = 53169
Dangerous builds = 0

write_data   system_after_npt.data
System init for write_data ...
PPPM initialization ...
  using 12-bit tables for long-range coulomb (../kspace.cpp:340)
  G vector (1/distance) = 0.15836486
  grid = 64 64 64
  stencil order = 5
  estimated absolute RMS force accuracy = 0.0020591805
  estimated relative force accuracy = 6.2011609e-06
  using double precision KISS FFT
  3d grid and FFT values/proc = 328509 262144
  generated 1 of 1 mixed pair_coeff terms from geometric mixing rule
Total wall time: 3:04:03
