LAMMPS data file via write_data, version 7 Jan 2022, timestep = 1000002

5000 atoms
2 atom types
4000 bonds
1 bond types
6000 angles
1 angle types

-126.6429753148249 230.14297531482407 xlo xhi
-126.6429753148249 230.14297531482407 ylo yhi
-126.6429753148249 230.14297531482407 zlo zhi

Masses

1 12.011
2 1.008

Pair Coeffs # lj/cut/coul/long

1 0.066 3.5
2 0.03 2.5

Bond Coeffs # harmonic

1 340 1.09

Angle Coeffs # harmonic

1 33 107.8

Atoms # full

994 199 2 0.06 -57.59869260996729 -47.663833787368446 -122.6600550909931 3 -4 -1
944 189 2 0.06 -91.45875873097636 -48.557576914015726 -124.66444953262027 9 -1 -1
941 189 1 -0.24 -91.19774794245214 -47.51463722253227 -124.84100345961339 9 -1 -1
942 189 2 0.06 -91.89878873571362 -46.85325977228099 -124.32756202845457 9 -1 -1
995 199 2 0.06 -57.05779741227086 -46.24377093306596 -123.55602763276025 3 -4 -1
991 199 1 -0.24 -56.751421519075066 -47.00516753690012 -122.83255139145463 3 -4 -1
992 199 2 0.06 -56.48816457441721 -46.5091700384793 -121.89734061708853 3 -4 -1
993 199 2 0.06 -55.91006827298369 -47.5751094300264 -123.22939094561288 3 -4 -1
3348 670 2 0.06 150.0903831051523 -29.164584508528208 -120.47526138138298 -8 -2 -5
3350 670 2 0.06 150.6895398791797 -27.4511351879153 -120.66350124580589 -8 -2 -5
3346 670 1 -0.24 150.95646946675103 -28.511345655215933 -120.6065263324586 -8 -2 -5
3349 670 2 0.06 151.7146031697047 -28.707546511350913 -119.84007128228687 -8 -2 -5
3347 670 2 0.06 151.43462239359692 -28.768764078744596 -121.54173313236309 -8 -2 -5
3076 616 1 -0.24 19.22059059076554 10.943696480157257 -117.85153551656813 0 -3 6
3078 616 2 0.06 18.252519927675365 10.688803664803032 -118.26243821495451 0 -3 6
3077 616 2 0.06 19.61860819698782 11.773133298477802 -118.45699690848961 0 -3 6
4546 910 1 -0.24 -123.29012306038628 55.840089936179254 -119.85799106837861 9 -5 2
4548 910 2 0.06 -123.30293313242106 55.32341377315865 -118.90726522976699 9 -5 2
4550 910 2 0.06 -123.82776902570886 56.78333889501363 -119.72936299872993 9 -5 2
4547 910 2 0.06 -123.82654019916261 55.19748576330343 -120.56298898455297 9 -5 2
4549 910 2 0.06 -122.27634481990364 55.94844262127759 -120.23238248195392 9 -5 2
1328 266 2 0.06 48.41153963703121 56.47817564082064 -124.69244004420985 7 3 -10
674 135 2 0.06 194.00570427849394 70.96183955439898 -124.25441803567944 -6 -10 -5
672 135 2 0.06 194.6892272049213 69.30833754529664 -124.17676564513862 -6 -10 -5
671 135 1 -0.24 194.52600981348965 70.23744339570052 -123.62465831774642 -6 -10 -5
675 135 2 0.06 193.90768921243196 70.02262105485849 -122.75199902098609 -6 -10 -5
673 135 2 0.06 195.48173625236782 70.65024227366399 -123.2878791702705 -6 -10 -5
2631 527 1 -0.24 29.918985810555967 146.92316051506188 -120.85955280084622 7 7 4
2632 527 2 0.06 30.584546810363975 146.9311386079344 -120.00173276531486 7 7 4
2635 527 2 0.06 30.24864894429095 146.13593369987458 -121.5361737490065 7 7 4
2633 527 2 0.06 28.906257116111135 146.755414316195 -120.49451268979485 7 7 4
2634 527 2 0.06 30.00769551709331 147.89249835941408 -121.34635430353056 7 7 4
3807 762 2 0.06 -75.14458976014521 148.69463370729713 -118.65027100549949 -3 6 -2
3808 762 2 0.06 -75.35468430826631 147.68708641496167 -120.13136602859166 -3 6 -2
3806 762 1 -0.24 -74.70451363955577 148.37455397184883 -119.59433977347128 -3 6 -2
3810 762 2 0.06 -73.74102010740529 147.90268697550195 -119.40940064058883 -3 6 -2
3809 762 2 0.06 -74.54460313345703 149.228605970198 -120.24814812228502 -3 6 -2
892 179 2 0.06 -3.486877931456604 151.87768998947277 229.20254098693235 -4 -3 7
891 179 1 -0.24 -4.18987766551605 152.50827216748567 228.65573701164394 -4 -3 7
894 179 2 0.06 -4.726064123777363 151.9213179332016 227.90477539142742 -4 -3 7
893 179 2 0.06 -3.660090825509485 153.3309318251361 228.17030338176582 -4 -3 7
895 179 2 0.06 -4.891478969677991 152.94762530970806 229.36624800890016 -4 -3 7
4608 922 2 0.06 -12.222412849025105 156.9493356636656 -114.64590377969353 -21 0 10
4607 922 2 0.06 -10.86295624911888 155.8681360564486 -114.38802904401497 -21 0 10
4609 922 2 0.06 -10.711863697568972 157.64660200439155 -114.05771635271063 -21 0 10
4606 922 1 -0.24 -11.138434038179213 156.88816568700761 -114.72017296556318 -21 0 10
4610 922 2 0.06 -10.808612382082202 157.06258665398613 -115.72082921132872 -21 0 10
1962 393 2 0.06 72.33398965897354 168.07661881242566 -124.74231832600557 -1 1 4
1964 393 2 0.06 73.5274561766781 169.37437228186755 -124.80152608455494 -1 1 4
1963 393 2 0.06 71.96718175634251 169.6670664691708 -123.98645891794216 -1 1 4
1961 393 1 -0.24 72.46022528305846 169.15809774264986 -124.8198252746865 -1 1 4
1965 393 2 0.06 72.02569756494483 169.5469065249575 -125.74315262931152 -1 1 4
3920 784 2 0.06 103.97606657853515 170.95530095381466 221.6543374580488 -1 -9 -11
3918 784 2 0.06 104.16301854386506 172.5786321304815 220.91365219266928 -1 -9 -11
3919 784 2 0.06 105.47375469544784 171.84912507921987 221.94135584105013 -1 -9 -11
3916 784 1 -0.24 104.3960943534357 171.95646207678143 221.78265837314225 -1 -9 -11
3917 784 2 0.06 103.96831587284754 172.39794411365304 222.6859205158481 -1 -9 -11
2380 476 2 0.06 154.74086738640042 194.4011768427218 -121.80504892289409 4 3 1
2376 476 1 -0.24 155.69788286774227 194.9134103746438 -121.69229902814438 4 3 1
2379 476 2 0.06 156.2500652546939 194.47184816811014 -120.8646797498078 4 3 1
2378 476 2 0.06 156.3537895947325 194.77057980729145 -122.55772210949145 4 3 1
2377 476 2 0.06 155.59931682259386 195.99083383439577 -121.49525518512563 4 3 1
4433 887 2 0.06 -104.32080567440327 219.51856672516138 228.08359492385043 -1 -1 7
4432 887 2 0.06 -103.98029492132841 217.80843100044976 228.3279137812369 -1 -1 7
4431 887 1 -0.24 -103.81476704736866 218.65336593275399 227.65033682580847 -1 -1 7
4435 887 2 0.06 -104.25198934739205 218.40999754598167 226.66846627672933 -1 -1 7
2880 576 2 0.06 34.376685601947145 -102.20622407399738 -107.19827596808373 1 6 10
2876 576 1 -0.24 34.46981008327276 -101.53874713783225 -106.33444369609408 1 6 10
2877 576 2 0.06 34.26503493040775 -102.05875168816937 -105.4019553638721 1 6 10
2879 576 2 0.06 35.50083630133736 -101.186990391302 -106.26415112355207 1 6 10
2878 576 2 0.06 33.77889367077188 -100.70673304307003 -106.46649183659399 1 6 10
1299 260 2 0.06 -70.64671743014496 -74.35615267736202 -111.44861817749116 -1 0 -3
1298 260 2 0.06 -70.54958865677939 -76.10153503994741 -111.5687582582689 -1 0 -3
1296 260 1 -0.24 -70.18855981218638 -75.23118027626941 -111.013290220745 -1 0 -3
1300 260 2 0.06 -69.09446568848836 -75.1636203608548 -111.09327332536267 -1 0 -3
4065 813 2 0.06 225.2518844462593 -75.3045800629605 -123.0624599456313 -6 10 4
1617 324 2 0.06 -100.48039248789942 -77.46365600535115 -116.96362751962728 5 4 0
1620 324 2 0.06 -99.05570315763828 -77.76184653807292 -117.93226675904388 5 4 0
1616 324 1 -0.24 -99.5722068157743 -78.05133055507872 -117.01721534636641 5 4 0
1618 324 2 0.06 -98.90803630487957 -77.81361318321757 -116.1918688672687 5 4 0
1619 324 2 0.06 -99.77643522254434 -79.12395787000423 -117.03548700489107 5 4 0
1297 260 2 0.06 -70.36118647375206 -75.40827742475409 -109.9502591799062 -1 0 -3
2718 544 2 0.06 53.36482275249864 -82.68914013089548 -123.71781788884088 5 -2 -8
4061 813 1 -0.24 224.6719477450525 -75.04264725580559 -122.17742189202377 -6 10 4
4062 813 2 0.06 225.31192721813457 -74.80005491016094 -121.33331171958959 -6 10 4
4064 813 2 0.06 224.03096656559276 -74.20268596296364 -122.42304545212869 -6 10 4
4063 813 2 0.06 224.04847401908913 -75.88776947729778 -121.91330624670745 -6 10 4
1454 291 2 0.06 -43.29623036774066 -61.252042899130274 -119.52433805108997 4 -7 3
1451 291 1 -0.24 -42.99247060939375 -60.26391808671852 -119.18740609704305 4 -7 3
1452 291 2 0.06 -43.47605389054229 -60.0582888307449 -118.2325048398263 4 -7 3
1453 291 2 0.06 -41.92065574296194 -60.29100970735783 -119.03598962154113 4 -7 3
1455 291 2 0.06 -43.251591527598336 -59.498267368326125 -119.9195602755305 4 -7 3
2779 556 2 0.06 79.09027644436725 -17.264120813626633 -118.56024765466688 -1 5 -4
2780 556 2 0.06 80.87079085063439 -17.224404174461384 -118.19163792082891 -1 5 -4
2776 556 1 -0.24 79.88428851461455 -17.586017932338635 -117.88887277837041 -1 5 -4
2778 556 2 0.06 79.97463413172866 -18.671367239485818 -117.8258808046558 -1 5 -4
1210 242 2 0.06 158.77567357684288 -8.630986345634682 -116.62361832316894 -10 -2 -4
1208 242 2 0.06 159.04123434156017 -7.796312465061305 -118.17836290288324 -10 -2 -4
1206 242 1 -0.24 159.40352130247388 -7.929353500541325 -117.15930068985195 -10 -2 -4
1207 242 2 0.06 159.32210850936085 -6.91588822318117 -116.75284206514439 -10 -2 -4
1209 242 2 0.06 160.4084530063291 -8.340551259414 -117.28436077353936 -10 -2 -4
3080 616 2 0.06 19.060260989273445 11.257168785350842 -116.82405407553009 0 -3 6
3079 616 2 0.06 19.826571841285727 10.05187097697413 -117.8398126424341 0 -3 6
2289 458 2 0.06 152.99799917864223 15.490526245811765 -109.15878322526797 10 -12 -2
2288 458 2 0.06 154.75230691142693 15.755666000966073 -109.02142162968265 10 -12 -2
2286 458 1 -0.24 153.7840309141894 15.9229324419357 -108.54877487441593 10 -12 -2
2290 458 2 0.06 153.58074108652536 16.981853705637945 -108.40535695865478 10 -12 -2
107 22 2 0.06 124.52844053576854 95.19747922912117 -122.4180937888839 2 2 -2
4374 875 2 0.06 143.99216557399703 87.93775978961733 -117.06860059799793 -2 -2 -1
4373 875 2 0.06 142.83735114285665 88.51175956694712 -115.85569385130478 -2 -2 -1
4372 875 2 0.06 144.17344225022018 87.52294613583388 -115.32076830489449 -2 -2 -1
4371 875 1 -0.24 143.46384260197928 87.67217145101753 -116.14279053968002 -2 -2 -1
109 22 2 0.06 122.8812420086019 95.87546272201172 -122.29972888833657 2 2 -2
106 22 1 -0.24 123.8644102574707 95.82278178403672 -121.81349223062777 2 2 -2
110 22 2 0.06 123.74896673994633 95.40827434067495 -120.80955719631946 2 2 -2
108 22 2 0.06 124.23675319324568 96.86308825021803 -121.74705344425186 2 2 -2
4289 858 2 0.06 142.21316555916647 95.94619595159165 -111.30164277620828 1 8 8
4290 858 2 0.06 143.13766171769893 95.54143839527396 -109.79853563157536 1 8 8
652 131 2 0.06 10.268008514456938 192.85158688593313 -119.02798278313166 3 0 0
655 131 2 0.06 10.116608077988047 194.14156194040996 -117.80863581809179 3 0 0
651 131 1 -0.24 10.719334167690562 193.29517236841966 -118.14677959830375 3 0 0
653 131 2 0.06 10.738585713086508 192.54329019990755 -117.35500451782065 3 0 0
1475 295 2 0.06 -112.59105278183505 197.5191890346205 -113.67475268445719 -2 7 2
1471 295 1 -0.24 -112.91530306910897 197.9043011675369 -112.7098525398703 -2 7 2
1473 295 2 0.06 -113.28478284570582 197.1089578422707 -112.06005070772312 -2 7 2
1474 295 2 0.06 -113.72212909006802 198.62383408688632 -112.86077283928724 -2 7 2
1472 295 2 0.06 -112.09342132231018 198.42453111728523 -112.21726244929063 -2 7 2
614 123 2 0.06 -98.41538986330656 -121.16171754541845 -104.45593810208432 1 8 2
3983 797 2 0.06 90.80663971078044 -101.29658448527407 -105.21769759888159 2 8 3
3981 797 1 -0.24 90.48305155037448 -101.28290313095255 -104.18370421735716 2 8 3
3985 797 2 0.06 89.52794782129229 -100.76385038126686 -104.16617057567578 2 8 3
4577 916 2 0.06 162.22569970904064 -103.84592668474286 -104.79694327673178 15 -6 1
4576 916 1 -0.24 161.39107209870585 -103.1553404171249 -104.67684938142901 15 -6 1
4578 916 2 0.06 160.8780730535287 -103.33385299147967 -103.73356634761659 15 -6 1
4579 916 2 0.06 161.78741034174752 -102.1532884644307 -104.59614911573043 15 -6 1
4580 916 2 0.06 160.68994242773525 -103.24985942548696 -105.51391592894196 15 -6 1
2717 544 2 0.06 52.65692669180646 -82.55168705398958 -122.08350853837958 5 -2 -8
2018 404 2 0.06 211.98736685811534 -87.56614943175629 -109.60571815470927 -14 3 -5
2016 404 1 -0.24 211.05322663624437 -87.97164666354378 -109.95697881485118 -14 3 -5
2020 404 2 0.06 210.2415643943713 -87.26428673020673 -110.11794716641205 -14 3 -5
2017 404 2 0.06 210.7600249778462 -88.68736925512326 -109.18785674227497 -14 3 -5
2019 404 2 0.06 211.23955311965463 -88.54094940101857 -110.87980441750992 -14 3 -5
2719 544 2 0.06 54.215348092678255 -81.70548580063094 -122.49518408895403 5 -2 -8
2716 544 1 -0.24 53.58736762816204 -82.58358940058162 -122.65389116083058 5 -2 -8
2720 544 2 0.06 54.12604740637747 -83.47151204109798 -122.32820919761511 5 -2 -8
1612 323 2 0.06 3.081484620542369 -62.75679320720141 -111.23096258476775 -10 -5 6
1613 323 2 0.06 3.712103682453261 -62.22721955870469 -112.81991077007254 -10 -5 6
1614 323 2 0.06 4.292911161623351 -61.444523338332544 -111.32155319045953 -10 -5 6
1611 323 1 -0.24 3.9615054146697446 -62.39000667779132 -111.76570067153436 -10 -5 6
1615 323 2 0.06 4.765830625575433 -63.126849998321354 -111.72328058087828 -10 -5 6
3760 752 2 0.06 32.526530235010995 -64.50527761510433 -117.14760010418323 9 -1 0
3759 752 2 0.06 31.0137746095576 -65.37245115564684 -117.50464575400152 9 -1 0
3756 752 1 -0.24 32.017524532591324 -65.47615755537687 -117.08764995087124 9 -1 0
3758 752 2 0.06 32.5592247749789 -66.2488215991649 -117.65074231384953 9 -1 0
3757 752 2 0.06 31.924024831885475 -65.84047250972807 -116.06504977137823 9 -1 0
4103 821 2 0.06 126.05185113899776 -48.75817527167425 -109.03109620441028 3 2 -5
1655 331 2 0.06 198.80994109290154 -30.92023084763983 -106.0152835853185 3 4 8
1652 331 2 0.06 199.55314093050137 -31.609402176997506 -104.55712777855642 3 4 8
4273 855 2 0.06 -71.80139787961662 -39.93227266081445 -100.69559652745664 -4 -7 12
4274 855 2 0.06 -72.11661783853616 -41.30912309788138 -99.62851317809327 -4 -7 12
4271 855 1 -0.24 -72.2906536842236 -40.909596041050946 -100.63364894281185 -4 -7 12
4275 855 2 0.06 -71.84490356305574 -41.51751737875185 -101.41968982921682 -4 -7 12
4272 855 2 0.06 -73.35310058230928 -40.77352045241203 -100.8408323196141 -4 -7 12
1653 331 2 0.06 199.70501039902692 -32.456644558559816 -106.12564568439215 3 4 8
1654 331 2 0.06 198.11787226975903 -32.38114518132019 -105.29411002385838 3 4 8
1651 331 1 -0.24 199.05177313966706 -31.84881889230246 -105.49517972836367 3 4 8
4666 934 1 -0.24 74.9159946840891 -19.72706484585609 -109.6084364938497 1 9 0
4668 934 2 0.06 75.9440561629772 -19.556383045920114 -109.94914224070365 1 9 0
4670 934 2 0.06 74.81092081855769 -20.770178461515115 -109.29690755527598 1 9 0
4667 934 2 0.06 74.23215581036823 -19.521518064798045 -110.43208932445924 1 9 0
2777 556 2 0.06 79.65639440607035 -17.207607334858068 -116.88491948215685 -1 5 -4
1449 290 2 0.06 132.87481565367145 -20.694077115009165 -100.640537643629 1 7 3
4563 913 2 0.06 77.55846753432374 1.3633236220096308 -105.54996325546281 -2 -4 5
2287 458 2 0.06 153.75083555761492 15.393004360437459 -107.60713718179797 10 -12 -2
396 80 1 -0.24 23.10370213136298 64.47911346225024 -111.85555828746307 2 4 -3
400 80 2 0.06 23.511596175994725 63.72716524922322 -112.52261150558532 2 4 -3
399 80 2 0.06 22.58067301015018 65.25968740232867 -112.40182532375474 2 4 -3
397 80 2 0.06 23.907240379431073 64.9461888488689 -111.29873781394046 2 4 -3
398 80 2 0.06 22.40110785026272 63.968116044265884 -111.18328918568199 2 4 -3
1025 205 2 0.06 42.90262305543348 61.26386674653722 -115.7683098309597 1 -11 -11
1023 205 2 0.06 43.567785871717234 59.613137073365465 -115.98683230319267 1 -11 -11
1021 205 1 -0.24 43.11328422899885 60.46897201483438 -116.49107963729107 1 -11 -11
1022 205 2 0.06 42.207259970519374 60.17704292581635 -117.01524903146668 1 -11 -11
1024 205 2 0.06 43.831461914321096 60.861919442035656 -117.20551474041983 1 -11 -11
4375 875 2 0.06 142.849478517321 86.77913405188826 -116.28986827616656 -2 -2 -1
4287 858 2 0.06 141.6015490858584 94.66929513278555 -110.24310159368773 1 8 8
4288 858 2 0.06 143.12540619444778 94.45015016190416 -111.18395599429431 1 8 8
4286 858 1 -0.24 142.4966587561223 95.13340667581298 -110.6120033154555 1 8 8
2795 559 2 0.06 218.5065115941484 102.34805644474639 -113.75181228721623 1 8 5
2791 559 1 -0.24 218.68731541312948 101.47957719848858 -114.38631142034563 1 8 5
2794 559 2 0.06 219.2198208865046 100.71467370855297 -113.80480250374308 1 8 5
2793 559 2 0.06 217.73440914693546 101.09866909896948 -114.75066151119309 1 8 5
2792 559 2 0.06 219.2699993964687 101.80789544390592 -115.25258771537112 1 8 5
2390 478 2 0.06 152.8099045021717 111.9360265808667 -113.42556669414732 -6 -2 -4
2387 478 2 0.06 154.4620656102983 111.22719193286378 -113.28938091911316 -6 -2 -4
2386 478 1 -0.24 153.69790279347168 111.8295392946113 -112.81725225118282 -6 -2 -4
2388 478 2 0.06 153.4075905150104 111.39569314122713 -111.8636184603576 -6 -2 -4
2389 478 2 0.06 154.1057098542893 112.81208744452849 -112.59062563125944 -6 -2 -4
2481 497 1 -0.24 99.61807333957358 110.14195327568979 -114.25658350822187 -7 -5 -4
2483 497 2 0.06 98.75643315084525 109.57522257027154 -114.61054384443604 -7 -5 -4
2484 497 2 0.06 99.66246280598267 110.03394180928268 -113.17492053653312 -7 -5 -4
2482 497 2 0.06 100.57000384093215 109.73024231967113 -114.62971537769528 -7 -5 -4
2485 497 2 0.06 99.48170689039449 111.17704389964598 -114.58681922771599 -7 -5 -4
2037 408 2 0.06 150.47738664550755 145.33913787012116 -110.31887105025072 2 5 -6
2040 408 2 0.06 148.97571434163618 144.39845962780717 -110.30048016974096 2 5 -6
2038 408 2 0.06 150.536277596181 143.6605616889088 -109.71422715367697 2 5 -6
2036 408 1 -0.24 149.93090370620396 144.5596724279856 -109.79818493781809 2 5 -6
4497 900 2 0.06 159.17533142677567 147.42648132948366 -108.74342566591204 -3 6 3
4499 900 2 0.06 160.13788269340043 147.54446322744369 -110.17484538580644 -3 6 3
4500 900 2 0.06 159.4083747169399 149.01446873362622 -109.54803241012992 -3 6 3
4498 900 2 0.06 160.78868571203637 148.21582196686214 -108.68110767317522 -3 6 3
4496 900 1 -0.24 159.8791561248714 148.07891488906822 -109.26935130682361 -3 6 3
2695 539 2 0.06 216.62329003064818 151.82654109200863 -108.52856958412198 1 4 2
2692 539 2 0.06 215.43197382741553 153.140574250409 -108.72042092656001 1 4 2
2694 539 2 0.06 216.4102753844738 152.57073810765385 -110.11268152800359 1 4 2
788 158 2 0.06 222.42587998168992 150.22656475333181 -110.05618599330732 -5 4 8
787 158 2 0.06 222.08051578023404 151.0903216994876 -108.55582853894607 -5 4 8
790 158 2 0.06 223.50631707423028 151.57526560543184 -109.54526379301912 -5 4 8
786 158 1 -0.24 222.47918702104934 151.20044300180936 -109.57325773337638 -5 4 8
789 158 2 0.06 221.87918552028762 151.9043721837123 -110.16091631911648 -5 4 8
2693 539 2 0.06 215.12287596916977 151.53512873502447 -109.45017784925481 1 4 2
2691 539 1 -0.24 215.89006496296733 152.2745557879243 -109.19938231884551 1 4 2
13 3 2 0.06 46.3401604708061 169.05192799543974 -116.47880775836107 -6 -1 4
12 3 2 0.06 46.16599492240033 167.52945469922045 -117.41306494455209 -6 -1 4
11 3 1 -0.24 45.77802333742716 168.52832917230725 -117.23995702350933 -6 -1 4
14 3 2 0.06 45.798011033703546 169.07638071901252 -118.19488660849794 -6 -1 4
15 3 2 0.06 44.75122071368483 168.45528309669518 -116.88473589267794 -6 -1 4
557 112 2 0.06 216.11771774640064 180.61626840516752 -111.89292258682808 -1 -4 3
559 112 2 0.06 214.63023504744856 181.4690648135078 -111.46098255617844 -1 -4 3
558 112 2 0.06 216.12209704011363 182.40043657975943 -111.79939931121424 -1 -4 3
556 112 1 -0.24 215.7142936253126 181.4778739817472 -111.3620658854738 -1 -4 3
560 112 2 0.06 215.99265635997577 181.41555274274 -110.30493729856656 -1 -4 3
1414 283 2 0.06 187.8482554024218 190.54715716078258 -110.05954927736718 4 -1 3
1411 283 1 -0.24 187.25568997736949 190.3204237953269 -109.18112018563797 4 -1 3
1415 283 2 0.06 186.72387414350905 189.39138723556496 -109.44608207294243 4 -1 3
654 131 2 0.06 11.738897401587707 193.60759955627768 -118.38897467129539 3 0 0
1413 283 2 0.06 186.52762778359667 191.127934689718 -109.04443602240516 4 -1 3
4960 992 2 0.06 91.04123881334087 197.41395269814146 -111.31323981424647 2 -2 -6
4956 992 1 -0.24 91.87495107516665 196.79108979706038 -110.97260739404173 2 -2 -6
4957 992 2 0.06 91.49331060193902 195.8227301907459 -110.6543483053607 2 -2 -6
4958 992 2 0.06 92.3930322880822 197.28981343755206 -110.15895068294918 2 -2 -6
4959 992 2 0.06 92.56860606478523 196.69089273162857 -111.81222223693041 2 -2 -6
615 123 2 0.06 -100.1157377245229 -121.65388912718254 -104.12469836839395 1 8 2
611 123 1 -0.24 -99.08966204551248 -121.66355115936658 -103.7628914324853 1 8 2
612 123 2 0.06 -98.80583826497694 -122.7023951131162 -103.63014203174224 1 8 2
613 123 2 0.06 -99.0201721176358 -121.13282253832786 -102.816236008298 1 8 2
3984 797 2 0.06 90.38675319138761 -102.28301355788456 -103.7588899227006 2 8 3
3982 797 2 0.06 91.1774063736726 -100.67652015374246 -103.61297654400829 2 8 3
3505 701 2 0.06 172.53054613844566 -104.44496831778935 -97.19733381671338 7 -3 9
3503 701 2 0.06 172.68987297104266 -104.8029516042859 -98.96497945272179 7 -3 9
3501 701 1 -0.24 173.19201894721598 -104.41792257976203 -98.06313355220011 7 -3 9
3504 701 2 0.06 174.10903033688746 -104.99642993342253 -97.89806863143106 7 -3 9
3502 701 2 0.06 173.48868362576482 -103.39045615626523 -98.26557004682262 7 -3 9
3824 765 2 0.06 -69.76835757692263 -89.02142476611402 -97.8013074390296 0 4 2
3823 765 2 0.06 -69.36263198280666 -90.7840434722738 -98.07577785179136 0 4 2
3821 765 1 -0.24 -68.98357920523136 -89.7846941693106 -97.85908021629758 0 4 2
3822 765 2 0.06 -68.39256182650995 -89.83063208908152 -96.94427207018401 0 4 2
3825 765 2 0.06 -68.31560156718297 -89.49661187503617 -98.66698955299276 0 4 2
3645 729 2 0.06 45.38542886390496 -69.14780889778672 -105.69806873741334 -6 -2 -7
3644 729 2 0.06 44.266922058114176 -67.84633755133885 -106.2356246010178 -6 -2 -7
3641 729 1 -0.24 45.193450550591564 -68.38067451533523 -106.4420671691959 -6 -2 -7
3642 729 2 0.06 45.084232881220885 -68.84055881905714 -107.42441711431353 -6 -2 -7
3643 729 2 0.06 46.02834069488907 -67.68337383511857 -106.4852218458212 -6 -2 -7
803 161 2 0.06 59.11503539103464 -39.046779955865006 -101.94414166117024 -4 16 11
804 161 2 0.06 60.833531968310524 -38.88123350087879 -102.37484976655747 -4 16 11
801 161 1 -0.24 60.121449500627705 -38.90861413677166 -101.5468287293954 -4 16 11
802 161 2 0.06 60.17755510194013 -37.97747266400334 -100.97526849696945 -4 16 11
4104 821 2 0.06 124.70731011738988 -48.31024340050217 -108.04745992398036 3 2 -5
4102 821 2 0.06 125.84137748001527 -49.5415161724346 -107.46967240035346 3 2 -5
4101 821 1 -0.24 125.7561374382706 -48.594704900353975 -107.99942111388262 3 2 -5
4105 821 2 0.06 126.34952143142178 -47.80104334566475 -107.54095203062433 3 2 -5
4669 934 2 0.06 74.74073470676299 -19.092168608392356 -108.74082584745538 1 9 0
1450 290 2 0.06 131.4161564874809 -21.346667196176426 -101.51482278703313 1 7 3
1446 290 1 -0.24 132.27030448793622 -20.675950629392858 -101.55729938317005 1 7 3
1447 290 2 0.06 131.85905203591986 -19.68477482989327 -101.7191580882602 1 7 3
1448 290 2 0.06 132.86715852805057 -20.92328486175913 -102.44806092440251 1 7 3
4564 913 2 0.06 79.2595364143717 0.764704318173699 -105.53075446827452 -2 -4 5
4565 913 2 0.06 78.1853273958109 0.45562686861883606 -104.16582587861261 -2 -4 5
4561 913 1 -0.24 78.44322603589902 1.1729600386060923 -104.93971080299167 -2 -4 5
4562 913 2 0.06 78.75993985585308 2.112960511277805 -104.49139263987523 -2 -4 5
4637 928 2 0.06 -111.38173666858604 15.552662532899717 -115.02403681057291 -4 0 5
4636 928 1 -0.24 -110.48373935092023 16.000464519507346 -115.45917644974955 -4 0 5
4640 928 2 0.06 -110.69167954355925 16.4119451815601 -116.45512320688067 -4 0 5
4639 928 2 0.06 -109.74016170301516 15.204727717115844 -115.6124784213648 -4 0 5
1374 275 2 0.06 -101.58686343368345 18.129559106761832 -98.41139869010927 1 0 3
4638 928 2 0.06 -110.0624771249734 16.733036303003843 -114.7820101034475 -4 0 5
1375 275 2 0.06 -100.33720491304734 19.426629730372838 -98.32064154783006 1 0 3
4239 848 2 0.06 -59.95250602886233 47.885383999194204 -102.80543964800724 -4 -2 -5
4237 848 2 0.06 -59.351814628610114 46.998102815740054 -101.38979267538524 -4 -2 -5
4240 848 2 0.06 -58.60005152351087 46.87153226424286 -103.02961026627452 -4 -2 -5
4236 848 1 -0.24 -59.523606149991096 46.955409560901956 -102.45545818689432 -4 -2 -5
4238 848 2 0.06 -60.1527440818672 46.095908092329864 -102.73287598751014 -4 -2 -5
1695 339 2 0.06 86.10156082903612 49.233345095518786 -103.53954660545728 0 1 -2
1694 339 2 0.06 87.23181463471818 50.52104117286689 -103.14662179186465 0 1 -2
1691 339 1 -0.24 86.80681307448404 49.59038920190889 -102.79622739143922 0 1 -2
1692 339 2 0.06 87.61578698195316 48.87605262816089 -102.71063157295582 0 1 -2
1693 339 2 0.06 86.32416463592114 49.75448467282115 -101.84068970016122 0 1 -2
2039 408 2 0.06 149.75134468729973 144.83027771826582 -108.766751757484 2 5 -6
1738 348 2 0.06 24.441959655781346 145.038544966076 -100.59572134990054 5 -4 -5
1739 348 2 0.06 24.6725056024205 143.30330651672264 -100.60689680861559 5 -4 -5
1736 348 1 -0.24 24.563166927226888 144.1696963679614 -101.2351310005878 5 -4 -5
1737 348 2 0.06 23.673895656414572 144.04980895359446 -101.87359885169704 5 -4 -5
1740 348 2 0.06 25.469767000148522 144.27693957675703 -101.84021494485431 5 -4 -5
2405 481 2 0.06 209.55959599294246 177.22632635704755 -96.26962304210164 6 -3 0
2403 481 2 0.06 207.98529743166492 178.0753141441402 -96.2209694956068 6 -3 0
2401 481 1 -0.24 208.6958881497964 177.5461349450711 -96.88102251487564 6 -3 0
2404 481 2 0.06 208.25345196177003 176.67051210211886 -97.3618282848343 6 -3 0
2402 481 2 0.06 209.08706553628153 178.25303652297166 -97.63656394925718 6 -3 0
1412 283 2 0.06 187.8936167460386 190.18380474585777 -108.29670240310912 4 -1 3
2002 401 2 0.06 -120.7674927182308 206.37367102895288 -99.64021726119392 -2 1 -9
2001 401 1 -0.24 -120.45436693149227 206.22565356898795 -100.67920900623383 -2 1 -9
2004 401 2 0.06 -120.70700442687883 205.21075931561714 -100.94015325417084 -2 1 -9
2003 401 2 0.06 -119.39743853474931 206.3521991060342 -100.84556297082273 -2 1 -9
2005 401 2 0.06 -121.00026093633342 206.88139945268395 -101.34233648336894 -2 1 -9
2647 530 2 0.06 119.9231735347191 210.46154249410537 -108.53351861228869 11 -4 -1
2648 530 2 0.06 120.70984792392642 212.0402370003304 -108.14103089279624 11 -4 -1
2649 530 2 0.06 120.09678191195448 210.95386119062627 -106.82057839800737 11 -4 -1
2646 530 1 -0.24 120.57152139824521 210.9936648357852 -107.81456550982523 11 -4 -1
2650 530 2 0.06 121.53555506223063 210.45880417256487 -107.76298046749704 11 -4 -1
102 21 2 0.06 -100.11237618501112 -125.47438242017692 -102.78850919006975 -6 9 9
104 21 2 0.06 -99.93297228298711 -125.25474167560009 -104.52947854306831 -6 9 9
101 21 1 -0.24 -99.40055114822871 -125.5058207149479 -103.59849015775717 -6 9 9
105 21 2 0.06 -98.57979314904405 -124.82251204310009 -103.4595807760491 -6 9 9
103 21 2 0.06 -98.90961624280204 -126.46742849243864 -103.69716087843724 -6 9 9
1363 273 2 0.06 -32.03485131945018 -113.63650805052391 -100.81000702152127 -11 -2 2
477 96 2 0.06 -45.683814202214194 -106.29239812932938 -99.35010925659444 2 -6 0
478 96 2 0.06 -45.032547522665084 -104.98960591306141 -100.4224946236773 2 -6 0
476 96 1 -0.24 -45.45897238335371 -105.98330711762408 -100.37893933123475 2 -6 0
479 96 2 0.06 -44.683397045603215 -106.61588275151574 -100.85839916889452 2 -6 0
480 96 2 0.06 -46.31759261238783 -106.03017970425783 -101.06358097222491 2 -6 0
3563 713 2 0.06 -39.5125274845698 -112.05645240820562 -98.26424044477916 9 0 5
3564 713 2 0.06 -40.53285671898726 -113.22283118392895 -97.33269645215789 9 0 5
3561 713 1 -0.24 -39.75129961223129 -113.11242771624819 -98.07893854661897 9 0 5
3565 713 2 0.06 -38.8718913869119 -113.61761695423421 -97.66855677126195 9 0 5
3562 713 2 0.06 -40.064054067552505 -113.60433176117635 -99.00438411324323 9 0 5
1361 273 1 -0.24 -32.01443681556273 -112.57241098893093 -100.58938456398752 -11 -2 2
1362 273 2 0.06 -31.646130811707593 -112.39407766427603 -99.58587761265872 -11 -2 2
1364 273 2 0.06 -33.027388892810066 -112.18104032627289 -100.67541220128908 -11 -2 2
1365 273 2 0.06 -31.377340899103103 -112.04003795921977 -101.28855126708609 -11 -2 2
2872 575 2 0.06 -7.952805583201183 -68.15123571575833 -99.86393300086354 0 -7 -2
2871 575 1 -0.24 -7.021216396874337 -67.64992199917168 -100.11001404151887 0 -7 -2
2874 575 2 0.06 -7.243733939569864 -66.75091008499459 -100.68119420111286 0 -7 -2
2873 575 2 0.06 -6.371146782830792 -68.28718920398937 -100.7156265103181 0 -7 -2
2875 575 2 0.06 -6.52828967205275 -67.3834387389012 -99.1653834495042 0 -7 -2
1157 232 2 0.06 169.86530035820837 -54.451407539331754 -93.19807680065107 -7 2 2
1160 232 2 0.06 171.33082723115498 -53.90086217484358 -92.27882517774748 -7 2 2
1158 232 2 0.06 171.46301804756965 -54.49444304274127 -93.98046013277951 -7 2 2
1156 232 1 -0.24 170.83537718360841 -53.95191068896642 -93.26181173702471 -7 2 2
1482 297 2 0.06 -122.60172265572068 -53.70269902709424 -87.71662397001033 -5 5 7
1484 297 2 0.06 -123.80966957555724 -52.76183824961531 -88.57440551975301 -5 5 7
1481 297 1 -0.24 -123.4485329958741 -53.02992750164756 -87.58108775230366 -5 5 7
1483 297 2 0.06 -123.13476725967705 -52.14324883374924 -87.02677902135319 -5 5 7
805 161 2 0.06 60.360935146992176 -39.748174075408286 -100.88850570900682 -4 16 11
1159 232 2 0.06 170.70713727397967 -52.917340251472424 -93.60992253338173 -7 2 2
300 60 2 0.06 65.6408978567421 -5.478358775939768 -91.4371105877701 4 3 6
3995 799 2 0.06 114.92036893596989 7.080795679249775 -94.7668899434523 0 2 -1
3994 799 2 0.06 114.23347462654198 7.72202431577054 -96.28008341096078 0 2 -1
3991 799 1 -0.24 114.36814600477194 7.9292187214366265 -95.20313462407434 0 2 -1
3992 799 2 0.06 114.92925725244089 8.860809854798674 -95.03804913281749 0 2 -1
3993 799 2 0.06 113.37270073751378 7.992364406917744 -94.73245334736762 0 2 -1
2069 414 2 0.06 184.1843142987116 7.487139762589607 -94.78259177276345 -2 6 -3
1373 275 2 0.06 -100.02735458605169 17.81956202535119 -97.61270735958475 1 0 3
2070 414 2 0.06 183.66287035046489 9.155042060656655 -94.36020993936778 -2 6 -3
1372 275 2 0.06 -101.20992472619608 18.90252970798329 -96.87674011213149 1 0 3
1371 275 1 -0.24 -100.78449790417622 18.57473720191794 -97.8231435094686 1 0 3