LAMMPS (29 Sep 2021)

# ------------------------------- Initialization Section --------------------

include      "system.in.init"        # specify the style of force field used
  atom_style full
  units real
  bond_style harmonic
  angle_style harmonic
  dihedral_style opls
  improper_style harmonic
  pair_style lj/cut/coul/long 11.0 11.0
  pair_modify mix geometric
  special_bonds lj/coul 0.0 0.0 0.5
  kspace_style pppm 0.0001

# ------------------------------- Atom Definition Section -------------------

read_data    "system.data"
Reading data file ...
  orthogonal box = (0.0000000 0.0000000 0.0000000) to (103.50000 103.50000 103.50000)
  2 by 2 by 2 MPI processor grid
  reading atoms ...
  5000 atoms
  scanning bonds ...
  4 = max bonds/atom
  scanning angles ...
  6 = max angles/atom
  reading bonds ...
  4000 bonds
  reading angles ...
  6000 angles
Finding 1-2 1-3 1-4 neighbors ...
  special bond factors lj:    0        0        0.5     
  special bond factors coul:  0        0        0.5     
     4 = max # of 1-2 neighbors
     3 = max # of 1-3 neighbors
     3 = max # of 1-4 neighbors
     4 = max # of special neighbors
  special bonds CPU = 0.001 seconds
  read_data CPU = 0.031 seconds

# ------------------------------- Settings Section --------------------------

include      "system.in.settings"    # load the force field parameters
  pair_coeff 1 1 0.066 3.5
  pair_coeff 2 2 0.03 2.5
  bond_coeff 1 340.0 1.09
  angle_coeff 1 33.0 107.8
  set type 1 charge -0.24
Setting atom values ...
  1000 settings made for charge
  set type 2 charge 0.06
Setting atom values ...
  4000 settings made for charge
include      "system.in.charges"     # load the charge of each atom
  set type 1 charge -0.24
Setting atom values ...
  1000 settings made for charge
  set type 2 charge 0.06
Setting atom values ...
  4000 settings made for charge

# ------------------------------- Run Section -------------------------------


# -- minimization protocol --

thermo          500
minimize	1.0e-4 1.0e-6 100000 400000
WARNING: Using 'neigh_modify every 1 delay 0 check yes' setting during minimization (../min.cpp:188)
PPPM initialization ...
  using 12-bit tables for long-range coulomb (../kspace.cpp:340)
  G vector (1/distance) = 0.13982374
  grid = 15 15 15
  stencil order = 5
  estimated absolute RMS force accuracy = 0.025711481
  estimated relative force accuracy = 7.7429363e-05
  using double precision KISS FFT
  3d grid and FFT values/proc = 2197 512
Neighbor list info ...
  update every 1 steps, delay 0 steps, check yes
  max neighbors/atom: 2000, page size: 100000
  master list distance cutoff = 13
  ghost atom cutoff = 13
  binsize = 6.5, bins = 16 16 16
  1 neighbor lists, perpetual/occasional/extra = 1 0 0
  (1) pair lj/cut/coul/long, perpetual
      attributes: half, newton on
      pair build: half/bin/newton
      stencil: half/bin/3d
      bin: standard
Per MPI rank memory allocation (min/avg/max) = 9.951 | 9.952 | 9.957 Mbytes
Step Temp E_pair E_mol TotEng Press 
       0            0    13.473059    169.81587    183.28893    62.917711 
       2            0     13.46648    168.45644    181.92292    1.7188027 
Loop time of 0.00572007 on 8 procs for 2 steps with 5000 atoms

94.1% CPU use with 8 MPI tasks x no OpenMP threads

Minimization stats:
  Stopping criterion = energy tolerance
  Energy initial, next-to-last, final = 
      183.288930482805   181.923003048985   181.922915101875
  Force two-norm initial, final = 43.104107 0.12623321
  Force max component initial, final = 0.68269501 0.0017082284
  Final line search alpha, max atom move = 1.0000000 0.0017082284
  Iterations, force evaluations = 2 4

MPI task timing breakdown:
Section |  min time  |  avg time  |  max time  |%varavg| %total
---------------------------------------------------------------
Pair    | 0.0018956  | 0.0019318  | 0.0019572  |   0.0 | 33.77
Bond    | 0.00038604 | 0.00039056 | 0.00039471 |   0.0 |  6.83
Kspace  | 0.0029227  | 0.0029613  | 0.0030003  |   0.0 | 51.77
Neigh   | 0          | 0          | 0          |   0.0 |  0.00
Comm    | 0.00025795 | 0.00027033 | 0.00028449 |   0.0 |  4.73
Output  | 0          | 0          | 0          |   0.0 |  0.00
Modify  | 0          | 0          | 0          |   0.0 |  0.00
Other   |            | 0.0001661  |            |       |  2.90

Nlocal:        625.000 ave         625 max         625 min
Histogram: 8 0 0 0 0 0 0 0 0 0
Nghost:        1935.00 ave        1935 max        1935 min
Histogram: 8 0 0 0 0 0 0 0 0 0
Neighs:        11250.0 ave       11625 max       10875 min
Histogram: 2 0 2 0 0 0 0 1 1 2

Total # of neighbors = 90000
Ave neighs/atom = 18.000000
Ave special neighs/atom = 4.0000000
Neighbor list builds = 0
Dangerous builds = 0

# Optional: write the coordinates after minimization
write_data  	system_after_min.data
System init for write_data ...
PPPM initialization ...
  using 12-bit tables for long-range coulomb (../kspace.cpp:340)
  G vector (1/distance) = 0.13982374
  grid = 15 15 15
  stencil order = 5
  estimated absolute RMS force accuracy = 0.025711481
  estimated relative force accuracy = 7.7429363e-05
  using double precision KISS FFT
  3d grid and FFT values/proc = 2197 512


# -- simulation protocol --


timestep        1.0
dump            1 all custom 2500 traj_npt.lammpstrj id mol type x y z ix iy iz
thermo_style    custom step time temp press vol density pe etotal epair ebond eangle edihed
fix             fxnpt all npt temp 100.0 100.0 100.0 iso 10.0 10.0 1000.0 drag 1.0


# ----------------------------- Customization -------------------------------
variable	d equal density
variable 	pe equal epair

fix extra all print 100 "${d} ${pe}" file out.txt screen no

run             1000000
PPPM initialization ...
  using 12-bit tables for long-range coulomb (../kspace.cpp:340)
  G vector (1/distance) = 0.13982374
  grid = 15 15 15
  stencil order = 5
  estimated absolute RMS force accuracy = 0.025711481
  estimated relative force accuracy = 7.7429363e-05
  using double precision KISS FFT
  3d grid and FFT values/proc = 2197 512
Per MPI rank memory allocation (min/avg/max) = 8.866 | 8.867 | 8.872 Mbytes
Step Time Temp Press Volume Density PotEng TotEng E_pair E_bond E_angle E_dihed 
       2            0            0    1.7188027    1108717.9  0.024027777    181.92292    181.92292     13.46648 1.4398946e-05    168.45642            0 
     500          498 0.00041714078    1.8550703      1073114  0.024824973    182.85069    182.85691    14.394011 1.2870225e-05    168.45667            0 
    1000          998 0.00073303101    2.0799727    1030438.7  0.025853092    184.05871    184.06963    15.602234 6.1296375e-06    168.45647            0 
    1500         1498 0.0021105345   -1.7209342     983891.3  0.027076188    157.55331    157.58476   -10.903268 9.9496918e-05    168.45648            0 
    2000         1998 0.00047583733   -3.5932054     936040.8  0.028460326    145.67572    145.68281   -22.780943 4.9843223e-05    168.45661            0 
    2500         2498 0.0027549464    -4.128231    890270.66  0.029923513    143.30831    143.34937   -25.148902 0.00029008475    168.45693            0 
    3000         2998 0.0069075245   -3.8436097    847969.73  0.031416246    144.30281    144.40574   -24.154401 0.00013675575    168.45708            0 
    3500         3498   0.01877485   -1.5633645    810527.35  0.032867522    155.86185    156.14161   -12.595696 0.0010098865    168.45653            0 
    4000         3998   0.05365879  -0.79576845    776117.52  0.034324732     158.0144    158.81397   -10.443061 0.00065568003     168.4568            0 
    4500         4498   0.15421752    -1.207204    744155.11  0.035799023     157.1466    159.44461    -11.31582 0.0022208857     168.4602            0 
    5000         4998   0.46108717   -1.7013931    713787.41  0.037322073    160.18899    167.05968   -8.2793092 0.0024228333    168.46588            0 
    5500         5498    1.3344658  -0.48187572    688748.94  0.038678863    173.23603    193.12099    4.7583704  0.007744687    168.46991            0 
    6000         5998    3.9503591  -0.63240217    666962.21  0.039942332    178.29524    237.15982    9.8153502   0.01370435    168.46619            0 
    6500         6498    11.373594    1.1264445     649249.9  0.041032006    182.80179     352.2805    14.301948   0.03194932    168.46789            0 
    7000         6998    29.899051     10.15424    635824.75  0.041898378    205.08179    650.60962    36.342141   0.18285535    168.55679            0 
    7500         7498    63.206152    9.3591812    626007.69  0.042555429    186.74035    1128.5796    17.015442   0.61803786    169.10687            0 
    8000         7998    93.351447    11.679926    614729.05  0.043336208    184.84747    1575.8839    12.897645    1.5083319    170.44149            0 
    8500         8498    100.16476    8.3214531    597849.61  0.044559745    166.58138    1659.1434   -4.7046611    1.6088452    169.67719            0 
    9000         8998    99.684153     5.468364    575674.13  0.046276225    161.96077    1647.3613   -10.148647      1.45196    170.65745            0 
    9500         9498    99.725292    2.6973173    548480.69  0.048570581    158.55158    1644.5651   -13.648804    1.6159232    170.58446            0 
   10000         9998    100.57096   -3.5397012    524308.34  0.050809846    142.24075    1640.8555   -28.944512    1.4953979    169.68986            0 
   10500        10498    102.58407   -26.798939    497586.53  0.053538479    26.281506    1554.8938   -146.25186    1.7184826    170.81488            0 
   11000        10998    100.10258   -3.7948346    514164.02  0.051812311    99.239145    1590.8746   -76.546008    1.9294634    173.85569            0 
   11500        11498    101.72966    25.501179     513710.5  0.051858052    20.621649    1536.5023   -161.22797    2.0644763    179.78515            0 
   12000        11998    99.485994    24.070687    540737.94  0.049266056    91.900344     1574.348    -92.18809    1.8551712    182.23326            0 
   12500        12498    99.358498    20.075972    567765.09  0.046920859    82.743324    1563.2912   -100.85095     1.681117    181.91316            0 
   13000        12998    100.18987    34.315677    599240.22  0.044456339    74.353842    1567.2901   -111.95596    1.7038749    184.60592            0 
   13500        13498    99.361766    50.077077    648258.06  0.041094785    72.552379     1553.149   -117.83943     1.561509     188.8303            0 
   14000        13998    99.486553    41.257148    697446.43  0.038196519    86.156304    1568.6123   -102.95829    1.6147544    187.49984            0 
   14500        14498    99.817648    35.736335    746773.09  0.035673522    95.180833    1582.5705   -95.398847    1.4697886    189.10989            0 
   15000        14998    99.639119    35.710301    795386.03  0.033493203    88.164674    1572.8941   -102.76429    1.5384833    189.39048            0 
   15500        15498    99.665468    34.853475    846336.61  0.031476868    82.240128    1567.3622   -109.63017     1.354746    190.51555            0 
   16000        15998    99.839475     32.96741    899549.65  0.029614848    80.770923    1568.4859   -112.96183    1.3030791    192.42968            0 
   16500        16498     99.83877    31.220393    954348.11   0.02791437    91.538329    1579.2428    -102.4413    1.2548735    192.72475            0 
   17000        16998    99.617238    30.804081    1010062.2  0.026374639    95.553927    1579.9573   -98.741817     1.369352    192.92639            0 
   17500        17498    99.738097     26.58632    1066321.8  0.024983103    96.898453    1583.1028   -97.425635    1.3831499    192.94094            0 
   18000        17998    99.611472     24.45771    1123335.7  0.023715107    99.899922    1584.2174   -94.697511    1.5169847    193.08045            0 
   18500        18498    99.755127    22.177795    1183587.7  0.022507859    106.63858    1593.0966   -89.067388    1.5154489    194.19051            0 
   19000        18998    99.556308    20.307886    1245608.2  0.021387163    115.16384    1598.6593   -81.003359    1.6094963     194.5577            0 
   19500        19498    99.788854    17.884081    1306942.4  0.020383473     114.7048    1601.6654   -82.555397    1.7087055     195.5515            0 
   20000        19998    99.711335    14.971495    1371257.4  0.019427444    122.60729    1608.4128   -74.865277    1.8232238    195.64934            0 
   20500        20498    99.619655    15.828513    1434103.6  0.018576081    133.43483    1617.8742   -65.673637     1.953169    197.15529            0 
   21000        20998    99.845073    14.289554    1498802.1  0.017774212    132.30543    1620.1038   -66.261785    1.9175103     196.6497            0 
   21500        21498    100.22816    12.169821    1566244.8  0.017008852    129.10415    1622.6109    -69.18551    1.9660174    196.32364            0 
   22000        21998    99.538524    15.462901    1634100.7  0.016302561    136.58735    1619.8178   -62.819259     1.872345    197.53426            0 
   22500        22498    99.997014    14.049476      1697936  0.015689653    140.37253     1630.435   -60.270796    1.8184408    198.82489            0 
   23000        22998    99.867859    15.440888    1763510.2   0.01510625    136.25648    1624.3944   -64.509997    1.8083957    198.95808            0 
   23500        23498    99.873237    15.009752      1828636   0.01456825    140.02711    1628.2451   -61.128788    1.7902717    199.36562            0 
   24000        23998    99.813469    14.740219    1890962.3  0.014088079    143.41412    1630.7416   -57.695193    1.7759225    199.33339            0 
   24500        24498      99.8841    15.087549    1947593.1  0.013678435    147.69756    1636.0775   -54.227398    1.8826162    200.04234            0 
   25000        24998    99.960394    12.907559    2007577.2   0.01326974    147.92941    1637.4462   -53.243057     2.021787    199.15068            0 
   25500        25498    99.681128    13.539852    2060977.9  0.012925915    154.63563     1639.991   -48.112624    2.0464322    200.70182            0 
   26000        25998    99.921232    11.278105    2114806.4   0.01259691    150.88146    1639.8147   -53.114219    2.0043451    201.99133            0 
   26500        26498    100.06253    10.033063    2160270.3  0.012331802    146.31685    1637.3556   -57.240062    2.2385548    201.31836            0 
   27000        26998    99.919825    9.4066502    2200650.5  0.012105523    148.28861    1637.2009   -54.934582    2.2036236    201.01957            0 
   27500        27498    99.899554    8.8828334      2242868  0.011877661    150.99016    1639.6004     -51.4223    2.2260186    200.18644            0 
   28000        27998     99.79941    9.6895754    2277769.9  0.011695661    154.53276    1641.6507   -50.233402    2.2231806    202.54298            0 
   28500        28498    100.08265    9.3446698    2310318.7  0.011530888    151.65045     1642.989   -53.036611    2.2282811    202.45878            0 
   29000        28998    100.18959     10.07266    2342703.2   0.01137149    149.06029    1641.9923   -55.009645    2.0642801    202.00565            0 
   29500        29498    99.863512    11.552865    2372049.6  0.011230805     153.6573    1641.7304    -50.73038    2.2011729    202.18651            0 
   30000        29998    99.990891    11.302875    2395117.5  0.011122638    156.31813    1646.2893   -48.075927    2.3645959    202.02946            0 
   30500        30498     99.94168    11.548361    2411047.1  0.011049152      160.263    1649.5009   -45.467969    2.3151363    203.41584            0 
   31000        30998    99.833293    11.576945    2427753.2   0.01097312    161.10859    1648.7314   -44.986601    2.2862401    203.80895            0 
   31500        31498    99.705897    11.189794    2445790.2  0.010892196    164.58391    1650.3084   -42.569056    2.4513326    204.70163            0 
   32000        31998     99.87361    10.967807    2465724.7  0.010804136    162.61685    1650.8404   -43.201526    2.4301971    203.38818            0 
   32500        32498     99.96202    10.009846      2492032  0.010690082    160.72459    1650.2656   -45.668553    2.3964693    203.99667            0 
   33000        32998    99.971086    9.8869043    2516746.9  0.010585103    156.98234    1646.6584   -49.403675    2.3798387    204.00618            0 
   33500        33498     99.95033    9.8705251    2548666.5  0.010452535    162.67705    1652.0439   -43.907003     2.543361    204.04069            0 
   34000        33998    99.988883    10.817683    2568517.8   0.01037175    164.26465    1654.2059   -42.746255    2.5632161    204.44769            0 
   34500        34498    99.969201    10.560401    2583762.4  0.010310556    165.63042    1655.2784   -40.726198    2.6265419    203.73008            0 
   35000        34998    100.14583       10.361    2595715.5  0.010263076    164.72159    1657.0016   -41.478507    2.7244415    203.47565            0 
   35500        35498    99.894847     11.12568      2608503  0.010212764    164.68722    1653.2273   -43.045106    2.5743747    205.15795            0 
   36000        35998    99.843342    10.269065    2629225.2  0.010132272    169.20529    1656.9779   -39.051979    2.6831836    205.57409            0 
   36500        36498     100.0638    9.0251723      2644797  0.010072617    167.28928    1658.3469   -40.778279    2.5810552     205.4865            0 
   37000        36998    99.998567    9.4643744    2652425.3  0.010043648    163.42757    1653.5132   -44.318895    2.7059566    205.04051            0 
   37500        37498    100.02859    9.4505297    2668183.8 0.0099843295     163.5978    1654.1308   -42.751464    2.7831943    203.56607            0 
   38000        37998    99.918925    10.003565      2684598 0.0099232833    168.37661    1657.2754   -39.092745    2.6387329    204.83062            0 
   38500        38498    99.854239    10.260024    2695026.7 0.0098848839    170.57712    1658.5121   -38.902805    2.6501294     206.8298            0 
   39000        38998    100.05154    10.632003    2689694.1 0.0099044817    165.69045    1656.5654   -42.514993    2.5607403     205.6447            0 
   39500        39498    100.07313    10.622312    2691440.4 0.0098980553    165.35137     1656.548   -43.759193    2.8562239    206.25434            0 
   40000        39998    100.12147     10.24992    2697102.6 0.0098772758    167.28402    1659.2011   -40.839617    2.5143779    205.60926            0 
   40500        40498    99.831613    12.094633      2698151 0.0098734378    171.07488    1658.6727   -38.768366    2.3777164    207.46553            0 
   41000        40998    99.925676    12.099904    2701008.8 0.0098629912    171.18182    1660.1813   -36.067672    2.6183603    204.63113            0 
   41500        41498    100.12861    11.244102    2711182.2 0.0098259816     170.1377    1662.1611   -38.734535    2.7480996    206.12413            0 
   42000        41998    99.780144    11.678036    2724762.7 0.0097770079    175.67216     1662.503   -35.613654    2.8389383    208.44688            0 
   42500        42498    99.923699    10.679406    2732686.5  0.009748658    174.44752    1663.4175   -36.090611    2.8809643    207.65717            0 
   43000        42998    100.03025    9.2485265    2743566.8 0.0097099974    171.13836     1661.696   -38.868539     2.701849    207.30505            0 
   43500        43498    100.02294    9.5483247    2756326.5 0.0096650473    168.96413    1659.4129   -40.290895    2.7646641    206.49036            0 
   44000        43998    99.976417    8.8230334    2778187.3 0.0095889957    175.64066    1665.3962   -34.499847    2.6809694    207.45953            0 
   44500        44498    100.02331    9.1938789    2788755.8 0.0095526565    174.84465    1665.2989   -35.419224    2.6573562    207.60652            0 
   45000        44998    100.00005    9.5569892    2795640.1 0.0095291329    172.16117    1662.2689   -38.471934    2.9820096    207.65109            0 
   45500        45498    99.951245    10.568485    2795726.5 0.0095288384    173.26544    1662.6459   -39.063532    3.0482626    209.28071            0 
   46000        45998    99.843114    10.751919    2803279.3 0.0095031651    173.63765    1661.4068   -37.615176    2.8077198    208.44511            0 
   46500        46498    100.21366    9.4094927    2823464.1 0.0094352273    174.59197    1667.8827    -35.49254    2.7340078     207.3505            0 
   47000        46998    99.967897    9.8374399    2835778.9 0.0093942535    174.73336    1664.3619   -36.949486    2.7197831    208.96306            0 
   47500        47498    100.04842    9.3263194    2852762.4 0.0093383263    173.17391    1664.0023   -38.310989    3.1255552    208.35934            0 
   48000        47998    99.990802    9.8050798    2868819.1   0.00928606    175.23834    1665.2082   -37.730783    3.0058308    209.96329            0 
   48500        48498    99.937878    10.575832    2877458.2 0.0092581799    176.92697    1666.1082   -35.545559    2.8215632    209.65097            0 
   49000        48998    100.12545     10.89963    2886897.6 0.0092279083    174.05919    1666.0355   -37.928807    2.7298057    209.25819            0 
   49500        49498    100.10423    10.961989    2907907.3 0.0091612364    177.41588    1669.0759   -33.702308    2.8143681    208.30382            0 
   50000        49998    99.873343    11.543345    2933041.5 0.0090827308    180.87679    1669.0964   -31.654639    2.8251772    209.70625            0 
   50500        50498    100.08634    10.256186      2943173 0.0090514645    179.61562    1671.0091   -32.312381    3.0441438    208.88386            0 
   51000        50998    99.866653    9.6710687    2939625.1  0.009062389    177.04763    1665.1676   -36.879497    3.0958006    210.83133            0 
   51500        51498    100.07402    7.9718771    2944011.3 0.0090488871    180.36834    1671.5783   -32.531324    2.9889983    209.91067            0 
   52000        51998    100.14429    8.0361188    2938221.6 0.0090667178    177.27283    1669.5299   -35.448354    3.2328739    209.48831            0 
   52500        52498    99.971349    7.9201779    2941098.3 0.0090578494    177.56937    1667.2494   -34.851733    3.1612281    209.25988            0 
   53000        52998    99.951546    8.6927119    2948566.7 0.0090349069    180.32448    1669.7094   -33.910296    3.1390294    211.09575            0 
   53500        53498    100.07971    9.9836015    2952849.3 0.0090218035    177.64662    1668.9413   -35.966019     3.044791    210.56784            0 
   54000        53998     100.2612    9.9179518    2956508.1 0.0090106386    175.38843    1669.3876   -37.099695    3.1212938    209.36683            0 
   54500        54498    99.875055    11.923294    2961970.1 0.0089940227    178.56088     1666.806   -36.015867    2.9935279    211.58322            0 
   55000        54998    100.11576    11.828481    2976926.4 0.0089488358    176.87385    1668.7057   -37.340907    2.9614799    211.25328            0 
   55500        55498    99.988258    11.845623    2991177.4 0.0089062006    175.96356    1665.8955   -38.200865    3.1504244      211.014            0 
   56000        55998    100.10321    11.774891    3002742.5 0.0088718984    177.79549    1669.4404    -35.17746    2.8101151    210.16284            0 
   56500        56498    99.868825    12.316594    3016644.2 0.0088310135    181.58828    1669.7406   -32.959533    3.0267328    211.52108            0 
   57000        56998    100.02799    11.280331    3024548.4 0.0088079352    179.36263    1669.8867   -35.748248     3.139733    211.97115            0 
   57500        57498    99.965763    10.187338    3016825.2 0.0088304836    177.98573    1667.5825   -36.627021     3.188187    211.42456            0 
   58000        57998     99.93925    9.3692789    3003999.5 0.0088681859    181.67906    1670.8808   -33.406055    3.3127358    211.77238            0 
   58500        58498    99.960452    8.2237045    2990707.5 0.0089075998    180.96719    1670.4848   -33.479805    3.4605031    210.98649            0 
   59000        58998    99.927307    8.1919234    2979906.8 0.0089398855    182.45668    1671.4804   -32.393515    3.2700073    211.58019            0 
   59500        59498    100.07834    8.5687844      2970479 0.0089682593    180.16757    1671.4419    -35.24812    3.3504165    212.06528            0 
   60000        59998    100.24638    8.7576374    2973488.3 0.0089591832     175.1002    1668.8784   -38.438207     3.418225    210.12018            0 
   60500        60498    99.807046     11.10172    2984585.9 0.0089258701     181.6766    1668.9083   -35.077903    3.0548791    213.69962            0 
   61000        60998     100.1024    10.942154      2992732 0.0089015742    176.62254    1668.2553   -38.950829    3.0973558    212.47601            0 
   61500        61498    99.765414    12.364282    2998212.5 0.0088853027    182.20888    1668.8202   -33.792965     3.431925    212.56992            0 
   62000        61998    100.06904    12.292387    3004998.2 0.0088652387    177.60977    1668.7455   -37.631881    3.1147965    212.12686            0 
   62500        62498    100.08947    10.951419    3018246.3  0.008826326    173.44725    1664.8874   -42.269391    3.2550458    212.46159            0 
   63000        62998    99.983024    10.487023    3029596.9 0.0087932575    179.47608    1669.3301   -37.745145    3.3142951    213.90693            0 
   63500        63498    99.966616    10.219945      3037537 0.0087702721      179.838    1669.4475   -35.268982    3.2061249    211.90086            0 
   64000        63998    100.12765    9.8281964    3041551.5 0.0087586962     180.2567    1672.2658   -36.235092    3.4244914     213.0673            0 
   64500        64498    99.837451    10.109405    3049421.6 0.0087360913    181.94099    1669.6258   -35.154228    3.2871947    213.80802            0 
   65000        64998    100.06767    10.072687      3063950 0.0086946672    182.30424    1673.4195   -34.441392    3.2644242    213.48121            0 
   65500        65498    99.957807    10.501187    3077751.5 0.0086556781    184.84251    1674.3207   -32.109218    3.4552399    213.49649            0 
   66000        65998    100.16672    9.5115676    3083249.1 0.0086402444    183.77092    1676.3621   -33.257052    3.7038031    213.32417            0 
   66500        66498    100.14747    9.4600454    3081243.6 0.0086458682    180.03129    1672.3357   -38.191734    3.4686049    214.75442            0 
   67000        66998    99.761912    8.7179698    3088312.9 0.0086260774    183.85756    1670.4167   -33.689494    3.7311492     213.8159            0 
   67500        67498    100.22337    7.5841667    3091557.7 0.0086170236    186.28764     1679.723   -31.196457    3.8365115    213.64758            0 
   68000        67998    100.12655    8.7631268    3076538.4  0.008659091    181.42178    1673.4144   -36.667082    3.7330712    214.35579            0 
   68500        68498    99.967946    9.1072153    3073718.5  0.008667035    181.37735    1671.0067   -36.293748    3.8925549    213.77855            0 
   69000        68998    99.939213    9.9902056    3078898.2 0.0086524544    184.61108    1673.8122   -33.579776    3.7616644    214.42919            0 
   69500        69498    100.06481    9.4804705    3079510.3 0.0086507344    186.37057    1677.4432   -31.388243     3.495369    214.26345            0 
   70000        69998    100.14992    9.1995832    3064537.1 0.0086930016    183.14784    1675.4888   -34.117556    3.6593056    213.60609            0 
   70500        70498    99.706137    9.8198704      3053206 0.0087252631    186.57884    1672.3069   -31.684684    3.4899741    214.77355            0 
   71000        70998    100.05613    8.6384713    3041973.5 0.0087574813    183.99642    1674.9398    -33.59648    3.8301403    213.76276            0 
   71500        71498    99.988223    9.7258267      3030767 0.0087898628     183.3244    1673.2559     -35.9643    3.9569808    215.33172            0 
   72000        71998    100.05542    9.8249853    3035248.5 0.0087768847    181.02867    1671.9614   -37.127467    3.8524279    214.30371            0 
   72500        72498    99.816449    10.704309    3046730.9 0.0087438065    186.97032    1674.3422   -32.222597     3.951027    215.24189            0 
   73000        72998    99.907442    10.649279      3054212 0.0087223894    183.93122     1672.659   -35.098088    3.5541512    215.47516            0 
   73500        73498    100.08642    10.413809      3066073  0.008688647    180.24887    1671.6436   -38.546232    3.6568644    215.13824            0 
   74000        73998     100.0622    10.577378    3085100.4 0.0086350597    180.76567    1671.7995   -37.640985    3.7598276    214.64683            0 
   74500        74498    100.02584    11.254953    3105731.5 0.0085776977    185.89428    1676.3863   -34.207395    3.7847157    216.31696            0 
   75000        74998    100.04885    11.306834    3129295.4 0.0085131068    185.17642    1676.0113   -33.624454    3.6509461    215.14993            0 
   75500        75498    100.00927    10.696185    3150744.5 0.0084551527    189.68019    1679.9253   -30.113585    4.3711602    215.42261            0 
   76000        75998     99.94033    10.079942    3162748.7 0.0084230613    187.08395    1676.3018   -32.720613    4.0573742    215.74719            0 
   76500        76498    100.24904    8.3301964    3167799.2 0.0084096321    182.39013     1676.208   -36.716259    3.9655929     215.1408            0 
   77000        76998      100.175    7.5620275    3162940.4 0.0084225506    185.95353    1678.6681   -34.310763    4.4233148    215.84098            0 
   77500        77498    99.964173    7.3967091    3156326.2 0.0084402005    187.78655    1677.3596    -33.74484     4.301363    217.23003            0 
   78000        77998    99.980068     8.666121    3152334.1  0.008450889    185.62127    1675.4312   -35.279374    3.7937708    217.10687            0 
   78500        78498    100.00637    9.2423719    3159462.6 0.0084318218    186.63184    1676.8336   -32.650105    4.4657692    214.81618            0 
   79000        78998    99.941083    10.822762      3164512 0.0084183677    190.87107    1680.1001   -30.165844    4.0694864    216.96743            0 
   79500        79498    100.16538    11.998752    3165894.9 0.0084146905     185.8849    1678.4561   -34.080873    3.5960559    216.36972            0 
   80000        79998    99.954789    12.677088    3164502.2 0.0084183937    186.40689    1675.8401   -35.447066     4.540727    217.31323            0 
   80500        80498    99.936796     12.33457    3164763.2 0.0084176995    184.97549    1674.1406   -36.625474    3.9822576     217.6187            0 
   81000        80998    99.892316    11.496044    3166901.1 0.0084120171    187.44758    1675.9499   -32.753975    3.8601839    216.34137            0 
   81500        81498    100.13352    9.8363295    3172912.9 0.0083960786     181.0765     1673.173   -40.014707    4.3503971    216.74081            0 
   82000        81998    99.753337     9.738894    3186946.5 0.0083591068    186.04172    1672.4731   -35.049598    4.3249853    216.76634            0 
   82500        82498    100.09038    8.5857044    3206337.1 0.0083085542    187.89631      1679.35   -32.943408    4.2444292    216.59529            0 
   83000        82998     100.0038    8.6883123    3214334.9 0.0082878812    186.30676    1676.4704   -35.973649    4.3256744    217.95474            0 
   83500        83498    100.09417    9.2528169    3214644.3 0.0082870837    185.18222    1676.6924   -37.114317    4.1052143    218.19133            0 
   84000        83998     99.95037    10.586371    3200422.9 0.0083239081    184.53801    1673.9054   -37.644959    4.3977148    217.78526            0 
   84500        84498    100.20572    10.396587      3188855 0.0083541039    179.96031    1673.1328   -40.550935    4.4529134    216.05833            0 
   85000        84998    99.959572     10.29037    3190042.9  0.008350993    185.87838    1675.3829   -35.564473     4.201381    217.24147            0 
   85500        85498    99.906499    11.129144    3185741.6 0.0083622683    187.41674    1676.1304   -35.075186    4.2108509    218.28107            0 
   86000        85998    99.892319    10.759425    3183318.1 0.0083686347    187.30299    1675.8054   -34.770186    4.4018794     217.6713            0 
   86500        86498    100.08186    11.798042    3174675.5  0.008391417     186.8363    1678.1631   -35.679852    4.0002634    218.51589            0 
   87000        86998    99.990697    10.890863    3178122.8 0.0083823149    191.38709    1681.3554   -30.520634    4.5064137    217.40131            0 
   87500        87498    100.02864    9.6255174    3182708.4 0.0083702377    189.30217    1679.8359   -32.960707    4.6757527    217.58713            0 
   88000        87998    99.980514    7.9735643    3186457.4 0.0083603898    190.35088    1680.1675   -32.755894     4.647419    218.45936            0 
   88500        88498     99.97579    7.1089443    3189704.9 0.0083518779     189.4333    1679.1795   -33.218238    4.8083686    217.84317            0 
   89000        88998    100.12055    6.2885501    3187577.5  0.008357452    189.83965    1681.7429   -32.701945    4.8716313    217.66996            0 
   89500        89498    100.04135    7.4426869    3174634.9 0.0083915242    188.09836    1678.8215   -34.785631    4.8543008    218.02969            0 
   90000        89998    100.08188    8.6225992    3164961.9 0.0084171711     189.5703    1680.8973   -33.069202     4.828406    217.81109            0 
   90500        90498    99.962627    9.4171064    3165240.9 0.0084164291    188.42892     1677.979   -34.568103    4.5462709    218.45075            0 
   91000        90998    99.754276    10.755344    3169440.6  0.008405277    196.46198    1682.9074   -27.490017    4.5577006    219.39429            0 
   91500        91498    100.17061    10.214936    3175656.1 0.0083888258    185.24414    1677.8934   -36.346383    4.3524289     217.2381            0 
   92000        91998    99.900064    11.332928    3184042.5 0.0083667306    187.11013    1675.7279   -36.064084    4.4460047    218.72821            0 
   92500        92498    99.439094    11.890386    3195110.6 0.0083377476    195.29539    1677.0442   -28.791801    4.6522971    219.43489            0 
   93000        92998    99.810929    12.256579    3193392.5 0.0083422334    191.25993    1678.5495   -33.484734    4.2066103    220.53806            0 
   93500        93498    100.04143    10.090297    3197384.2 0.0083318189    186.94599    1677.6702   -35.130755    4.4599198    217.61682            0 
   94000        93998    99.920272     9.877195    3199266.3 0.0083269174    190.98417    1679.9031   -32.211151    4.7606747    218.43465            0 
   94500        94498    99.973299    9.4831847      3203256 0.0083165459    188.87151    1678.5806   -34.991067    4.5807528    219.28182            0 
   95000        94998    100.05746     8.829919    3208277.7 0.0083035287    192.25541    1683.2186    -30.78346    4.6325423    218.40633            0 
   95500        95498    100.06765    9.1128442    3209308.7 0.0083008611    191.85081    1682.9659   -31.595644    4.5682292    218.87822            0 
   96000        95998    100.04787    9.2057732    3211026.6 0.0082964202    189.52442    1680.3447   -35.897349    4.5237067    220.89806            0 
   96500        96498    100.12454    9.9458096    3213479.1 0.0082900884    187.69176    1679.6544   -35.189022    4.7688912    218.11189            0 
   97000        96998    100.06566    11.050788    3207874.5 0.0083045724    191.19082    1682.2762    -32.01212    4.5961723    218.60676            0 
   97500        97498    100.11324    11.391207    3203985.8 0.0083146516    190.87777    1682.6722   -32.745902    4.4231904    219.20048            0 
   98000        97998    100.06966     12.07301    3193067.8 0.0083430818    190.74839    1681.8934   -33.781021    4.8879508    219.64146            0 
   98500        98498    100.05589    11.186251    3192921.8 0.0083434633    191.87595    1682.8158   -32.315443    4.6568656    219.53453            0 
   99000        98998    99.891773     10.60492    3198248.5 0.0083295672    193.75736    1682.2516   -29.974524    4.3672261    219.36466            0 
   99500        99498     99.78759    10.007521    3201304.7 0.0083216151    194.41429    1681.3561   -30.053759     4.856077    219.61197            0 
  100000        99998    99.880071     8.625958    3205553.6  0.008310585    194.17578    1682.4957    -31.22663    4.8416028    220.56081            0 
  100500       100498    99.993802    7.7799626    3204150.8 0.0083142236    192.47001    1682.4846   -32.271912    4.8993055    219.84261            0 
  101000       100998    99.903194    8.8841756    3193532.8 0.0083418671    193.53549    1682.1999   -32.038643    4.9999057    220.57423            0 
  101500       101498    100.00202    9.4278728    3183237.9 0.0083688455    190.44969    1680.5867   -33.796654    4.7709106    219.47544            0 
  102000       101998    100.11779    10.535634    3172964.7 0.0083959414    191.97309    1683.8352   -32.845838    4.8503674    219.96856            0 
  102500       102498    99.974477    10.947203    3162311.6 0.0084242256    195.08599    1684.8126   -28.978557    4.7486368    219.31591            0 
  103000       102998    99.951049    11.365364    3151387.6 0.0084534273    193.59985    1682.9774    -32.51744    4.4654581    221.65183            0 
  103500       103498    100.11351    10.582384    3142222.3 0.0084780845     189.4947    1681.2931   -35.369417    4.8899936    219.97412            0 
  104000       103998    99.994246    10.618166    3133518.6 0.0085016333    190.58115    1680.6024   -33.807203    4.7719894    219.61637            0 
  104500       104498    100.10465    10.008149    3133456.4 0.0085018021    189.05591    1680.7223   -35.647523    4.5158165    220.18761            0 
  105000       104998    99.876196    9.4176328    3143797.4 0.0084738368    189.82735    1678.0895    -35.62306    4.8364742    220.61394            0 
  105500       105498     99.78916    9.0250448    3160276.7 0.0084296498    191.54057    1678.5058   -35.176809    4.8181798     221.8992            0 
  106000       105998    100.07534    9.1097562    3163769.3  0.008420344    191.31717    1682.5468   -33.693974    4.8157988    220.19535            0 
  106500       106498    100.10649    9.1262659    3167004.1 0.0084117434    188.10674    1679.8005   -37.308293    4.6617572    220.75328            0 
  107000       106998    99.884066    10.511963      3172489 0.0083972005    192.77789    1681.1573   -34.061426    4.8760768    221.96324            0 
  107500       107498    100.00661    11.115856    3172441.5 0.0083973262    189.23454      1679.44   -35.839392    4.8217355    220.25219            0 
  108000       107998     100.1475    11.239043    3171800.3 0.0083990236    186.76442    1679.0692   -38.053082    5.0522267    219.76527            0 
  108500       108498    99.829612    11.559667    3181278.7 0.0083739995    195.59683    1683.1648   -30.567037    4.8681218    221.29575            0 
  109000       108998    100.13363    10.388583    3177944.5 0.0083827851    188.07922    1680.1774    -37.47115    4.8856901    220.66468            0 
  109500       109498     100.1153    10.344509    3169024.9 0.0084063794    187.48905    1679.3141   -37.983638    4.9649725    220.50772            0 
  110000       109998    100.05206    9.3462046    3169037.8 0.0084063453    189.62983    1680.5125   -36.168576    5.0299946    220.76841            0 
  110500       110498    100.01376    9.1590584    3174718.1 0.0083913045    190.86597    1681.1779   -34.852079    5.0971876    220.62086            0 
  111000       110998    99.960661    9.6950052    3189279.8 0.0083529911    192.27526     1681.796    -34.48943    5.2288312    221.53586            0 
  111500       111498    99.854953    9.4292837    3201687.3 0.0083206207    195.06062    1683.0062   -31.527248    5.2093178    221.37855            0 
  112000       111998    99.911249    9.9816872    3210549.8 0.0082976523    195.98688    1684.7713   -31.630653    4.9465539    222.67098            0 
  112500       112498    100.12957    10.401523    3211456.8 0.0082953088    189.72731    1681.7649   -36.380217    5.1934768    220.91405            0 
  113000       112998    100.17525    11.188802    3206765.5 0.0083074444    189.96851    1682.6868   -36.667616    5.2862977    221.34983            0 
  113500       113498    99.977486    11.068537    3205080.1 0.0083118128    194.27353     1684.045   -31.887131     5.260371    220.90029            0 
  114000       113998    100.14142    10.160499    3201437.6 0.0083212697    193.99508    1686.2093   -33.577276    5.3238402    222.24852            0 
  114500       114498    100.05747    9.3575254    3199361.3 0.0083266701     193.2519    1684.2152   -35.182415    5.2155501    223.21876            0 
  115000       114998    100.11674     7.805838    3191651.1  0.008346785     190.7105     1682.557   -35.527403     5.363071    220.87483            0 
  115500       115498    100.08057    8.5922562    3181454.3 0.0083735373    196.58805    1687.8955   -31.830196    5.3860955    223.03215            0 
  116000       115998    100.07658    9.4151692    3171739.3 0.0083991853    194.36748    1685.6156   -33.034458    5.3057056    222.09623            0 
  116500       116498    100.02755    10.992673      3165474 0.0084158093     194.7827    1685.3002   -31.452168    5.0588559    221.17602            0 
  117000       116998    100.11613    12.548725    3162302.5 0.0084242496    190.33128    1682.1686    -37.21011    5.1327525    222.40864            0 
  117500       117498    99.917963    12.712222    3169206.7 0.0084058973    192.41653     1681.301   -36.020396    5.3217203     223.1152            0 
  118000       117998    100.11237    12.077444      3174442 0.0083920343    189.72782    1681.5092   -37.491203    5.2859007    221.93312            0 
  118500       118498    100.03031    10.362671    3169188.7 0.0084059451    187.78332    1678.3419   -39.911106    5.4425851    222.25184            0 
  119000       118998    99.941487    8.9302611    3162345.8 0.0084241343    189.73794     1678.973   -38.788949    5.2090949    223.31779            0 
  119500       119498    100.01116    6.8371696    3165757.2 0.0084150565    190.04654    1680.3198   -37.300733    5.5649489    221.78232            0 
  120000       119998    100.00392    6.4968448    3176501.4 0.0083865935    193.26612    1683.4315   -34.858019    5.6467217    222.47742            0 
  120500       120498    99.972123    7.8036746    3177823.8 0.0083831035    190.21278    1679.9043   -38.256944    5.7755558    222.69417            0 
  121000       120998    100.04057    8.5609185    3180386.8 0.0083763477    190.59545     1681.307   -37.772286    5.8463145    222.52142            0 
  121500       121498    100.04926    8.8901232    3176959.5 0.0083853842    192.69788    1683.5388   -35.809622    5.5852264    222.92228            0 
  122000       121998    99.957851     11.05982    3174576.5 0.0083916787     193.5083    1682.9872    -36.98516    5.3066166    225.18685            0 
  122500       122498    99.802018    12.764734    3176374.2 0.0083869293    194.99579    1682.1526   -34.120934    5.5390842    223.57764            0 
  123000       122998    100.19156    12.903455    3183084.9 0.0083692476    194.80724    1687.7686   -32.454065    5.3650252    221.89628            0 
  123500       123498    100.21961    13.161392    3192337.6   0.00834499    193.84456    1687.2239   -34.190763     5.387704    222.64762            0 
  124000       123998     99.88692    12.956785    3215952.9 0.0082837116    199.93544    1688.3574   -29.248261    5.4786714    223.70503            0 
  124500       124498    99.895669    12.144434    3232639.9 0.0082409507    200.23591    1688.7882   -29.157501    5.5764039    223.81701            0 
  125000       124998    100.07146    9.9900138    3232550.8 0.0082411777    198.38067    1689.5524   -30.667282    5.4862033    223.56175            0 
  125500       125498    100.05068    8.8160061    3224283.3 0.0082623093    200.10237    1690.9646   -29.650271      5.89135     223.8613            0 
  126000       125998    100.00649    7.5660367    3211299.9 0.0082957142    200.68395    1690.8876   -30.478567    6.1324684    225.03005            0 
  126500       126498    99.817508    6.6871384    3199470.4 0.0083263862    196.67694    1684.0646   -34.945816    6.1230251    225.49973            0 
  127000       126998    99.793531    5.9142736    3192941.4 0.0083434121    199.04128    1686.0716   -32.252367    6.2206076    225.07304            0 
  127500       127498    99.976874     6.345618    3192504.8  0.008344553    198.79074    1688.5531   -31.656845    6.0356544    224.41193            0 
  128000       127998    99.839245    7.6552585    3192250.8 0.0083452171    200.55355    1688.2651   -30.781607    5.7866401    225.54851            0 
  128500       128498    100.00369    9.2957837    3185405.6 0.0083631503    199.51427    1689.6762   -32.241134    6.0476028     225.7078            0 
  129000       128998    100.06913    10.112789    3182236.5  0.008371479    196.25816    1687.3952   -34.358152    5.9506299    224.66568            0 
  129500       129498    99.892191    12.774666      3180545 0.0083759312    196.94283    1685.4433   -35.310739    5.7061642    226.54741            0 
  130000       129998    99.933843    13.163106    3195875.2  0.008335753    194.82009    1683.9412   -35.040358    5.6994232    224.16102            0 
  130500       130498    100.06097    12.892353    3208743.5 0.0083023232    192.83713    1683.8526   -37.021266    5.5783749    224.28002            0 
  131000       130998    99.975746     12.32255    3211766.1 0.0082945101    196.52952    1686.2751   -35.015815    5.8880524    225.65728            0 
  131500       131498      100.172    10.566683    3207674.4 0.0083050905    191.94629    1684.6162   -38.694114    5.7991146    224.84129            0 
  132000       131998    100.04417    10.950572      3204614 0.0083130217    192.03045    1682.7956   -38.691759    5.7307502    224.99146            0 
  132500       132498    100.09283    10.437236    3200061.6  0.008324848    194.71928    1686.2095   -36.894123    5.9697892    225.64362            0 
  133000       132998    100.01181    9.6938652    3187566.7 0.0083574802    194.82316    1685.1062   -37.457375     6.044959    226.23558            0 
  133500       133498    99.848733    9.3632514    3186008.1 0.0083615688    193.72897    1681.5819   -38.150677     6.469617    225.41003            0 
  134000       133998    99.927979    7.9340055    3197938.4 0.0083303748    192.25684    1681.2906   -39.611328    6.1925051    225.67567            0 
  134500       134498     100.1205    7.4424068    3198686.5 0.0083284266    194.37027    1686.2729   -37.298124    6.0826227    225.58577            0 
  135000       134998    100.03192    7.4570563    3194842.5 0.0083384474     199.9693    1690.5519   -32.177278    6.4156519    225.73093            0 
  135500       135498    99.869262    8.8836809    3181614.1 0.0083731166    201.04797    1689.2068   -31.855027    6.3747358    226.52826            0 
  136000       135998    99.851626    9.8526221    3177124.3 0.0083849492    197.94451    1685.8405   -33.966274    6.0770523    225.83373            0 
  136500       136498    100.13534    10.432133    3177207.3 0.0083847302    196.29877    1688.4224   -33.655914     5.865921    224.08876            0 
  137000       136998    99.873612    11.981985    3180080.9 0.0083771536    198.92319    1687.1468   -33.266644    6.4815997    225.70823            0 
  137500       137498    100.04057    12.073156    3185148.4 0.0083638256    199.76695    1690.4784   -32.925658    6.2000232    226.49258            0 
  138000       137998    99.971456    12.603358    3185655.5 0.0083624942    195.42274    1685.1043   -36.774382    5.7635935    226.43353            0 
  138500       138498    100.06555     11.12071    3192704.4 0.0083440315    200.88924     1691.973   -32.168661    6.5522315    226.50567            0 
  139000       138998    100.16061    10.415293    3194751.5 0.0083386848    199.40131    1691.9015   -31.075657    6.1970476    224.27992            0 
  139500       139498    100.12731     9.670933    3198689.2 0.0083284197    195.61563    1687.6196    -36.85556    6.4069244    226.06427            0 
  140000       139998    99.992417    8.6320107    3204290.1 0.0083138621    196.94496    1686.9389   -37.430445    6.3674537    228.00795            0 
  140500       140498    100.24223     7.513236    3195331.7 0.0083371708    197.49709    1691.2136   -35.334207    6.4752441    226.35605            0 
  141000       140998    99.880722    8.7301366    3187224.4 0.0083583778    201.72951    1690.0591   -31.643696    6.7388809    226.63432            0 
  141500       141498    99.949361    8.4005143    3193662.6  0.008341528    202.12683    1691.4792   -32.074444    7.1246772     227.0766            0 
  142000       141998    99.977583    8.0749444    3204465.2 0.0083134079    206.65617    1696.4291   -27.628951    6.7993909    227.48573            0 
  142500       142498    99.797981    8.6680231    3203568.1 0.0083157359     201.4788    1688.5754   -32.125877    6.7985024    226.80617            0 
  143000       142998    99.934399    8.8261842    3211528.7 0.0082951232    200.95676    1690.0862   -32.795336    7.1483568    226.60374            0 
  143500       143498    99.973497    9.7106709    3217055.7 0.0082808719    204.96537    1694.6774   -29.900973     6.910611    227.95573            0 
  144000       143998    100.04854    10.680711    3220553.7 0.0082718776    200.75923    1691.5895    -32.93634    6.5936767    227.10189            0 
  144500       144498    99.960588    11.104356    3234988.4 0.0082349681    204.94023    1694.4599   -29.286346    6.7675979    227.45898            0 
  145000       144998      100.009    11.093359    3240180.3 0.0082217727    201.44136    1691.6825   -32.306495    6.5611572     227.1867            0 
  145500       145498    99.923654    11.104583    3238512.1 0.0082260078    205.14471     1694.114   -29.264262    6.9839096    227.42506            0 
  146000       145998     100.0054    10.817678    3226957.4 0.0082554626    201.41088    1691.5983   -33.175117    6.5736768    228.01232            0 
  146500       146498    100.10885    9.2862283    3220746.6 0.0082713822    201.05551    1692.7844   -32.982802    7.0640437    226.97427            0 
  147000       146998    99.835802    9.5888646    3221700.2 0.0082689338    207.34575     1695.006   -29.115071    7.0561214     229.4047            0 
  147500       147498     99.75612    8.6193925    3208730.1 0.0083023579    202.92442    1689.3973    -32.96453    6.8455133    229.04344            0 
  148000       147998    100.16199    6.7484625      3194920 0.0083382451    204.84005    1697.3608   -28.497722    6.8889722     226.4488            0 
  148500       148498    100.06592    8.7562417      3172129 0.0083981535    202.99105    1694.0803   -31.124734    6.9089769    227.20681            0 
  149000       148998    99.998078    10.003218    3169667.1 0.0084046764    198.83959    1688.9179   -35.939356    6.8177553    227.96119            0 
  149500       149498    100.01908    11.045275    3179453.6 0.0083788063    200.71589    1691.1072   -34.083211     7.020745    227.77836            0 
  150000       149998    100.04204     12.34239    3183217.8 0.0083688981     203.5587    1694.2921   -30.226902    6.7682115    227.01739            0 
  150500       150498    99.922185     13.19541    3181592.8 0.0083731727    200.81795    1689.7654   -32.875655    6.8282755    226.86533            0 
  151000       150998    100.01993    13.583521    3189596.3 0.0083521624     202.1947    1692.5987   -34.099544    7.0976997    229.19655            0 
  151500       151498    99.941043     12.74585    3201277.1  0.008321687    202.87502    1692.1034     -31.9246    6.6287611    228.17086            0 
  152000       151998    100.06326    11.497538    3213543.1 0.0082899234    203.62593    1694.6755   -31.430776    6.9708758    228.08583            0 
  152500       152498    99.885651    10.038162    3215401.3 0.0082851324    203.21345    1691.6165   -31.471061    6.8186397    227.86587            0 
  153000       152998    100.13108    9.2700045      3202483 0.0083185534    201.17655    1693.2368   -33.991349    6.9891034    228.17879            0 
  153500       153498    99.930184    8.2418504    3196762.5 0.0083334391    201.74788    1690.8145   -34.968463     7.286761    229.42958            0 
  154000       153998    100.00929    8.5581382    3193606.4 0.0083416749    201.91925    1692.1646   -35.130061    7.0975739    229.95173            0 
  154500       154498    99.999351     8.297531      3193626 0.0083416234    202.45164    1692.5489   -34.231062    7.0057776    229.67693            0 
  155000       154998    100.02895    9.6167252    3184171.1 0.0083663927    206.27506    1696.8134   -30.217247    7.1638074     229.3285            0 
  155500       155498    100.10904    9.4637097    3179984.4 0.0083774077    203.37397    1695.1058   -31.835199    7.3244942    227.88468            0 
  156000       155998    100.08711    10.473689    3181762.6 0.0083727258    203.42137    1694.8264   -32.421072    7.2889179    228.55352            0 
  156500       156498     99.66973    10.523978    3199428.3 0.0083264957    207.16557    1692.3511   -31.334901    7.5784871    230.92198            0 
  157000       156998     99.81529    9.8497433    3217683.3 0.0082792566    205.04851    1692.4031    -33.82631    7.2670274     231.6078            0 
  157500       157498     100.0402    9.3260495    3233657.1 0.0082383583    203.17141    1693.8774   -33.659081    7.0970564    229.73344            0 
  158000       157998    100.21094     8.827019      3231443  0.008244003    201.18796    1694.4382   -34.267626    7.3217416    228.13384            0 
  158500       158498    100.10827    9.8506952    3221966.7 0.0082682498    199.37618    1691.0965   -36.498861    6.9291295    228.94591            0 
  159000       158998    100.07311    10.928929    3216570.6 0.0082821206    202.26705    1693.4634   -34.452759    7.5603263    229.15948            0 
  159500       159498    99.914401    12.015861    3211547.1 0.0082950755     201.5414    1690.3728   -37.315952    7.2571864    231.60017            0 
  160000       159998    99.952235    11.712603    3211558.4 0.0082950465    203.97206    1693.3673   -34.068196    7.2163728    230.82388            0 
  160500       160498    100.00474    11.601377    3207158.4 0.0083064267    200.06395    1690.2415   -37.439351    7.5201532    229.98315            0 
  161000       160998    99.876307    11.112931    3202247.8 0.0083191645     205.9097    1694.1735   -31.212881    7.3777703    229.74482            0 
  161500       161498    99.936287    9.4853729    3200523.2 0.0083236473    202.21657    1691.3741   -34.151273    7.3310634    229.03678            0 
  162000       161998    100.06739    7.5727803    3206779.5 0.0083074082    202.07069    1693.1818   -35.765682    7.7548167    230.08156            0 
  162500       162498    99.997856    7.7879558    3205323.6 0.0083111813    199.01166    1689.0867   -39.366467    7.5533886    230.82474            0 
  163000       162998    99.929115    8.2563022    3206487.9 0.0083081636    198.89161    1687.9423   -40.003591    7.6864674    231.20874            0 
  163500       163498    99.918033    9.5567638    3205326.4 0.0083111741    203.62045     1692.506   -35.014433    7.7384387    230.89645            0 
  164000       163998     100.0387    10.432738    3199072.7 0.0083274211    202.89685    1693.5805   -35.803899    7.5212725    231.17948            0 
  164500       164498    100.22535    11.534315    3202785.8 0.0083177669    201.17449    1694.6394   -35.783293    7.7774371    229.18034            0 
  165000       164998    99.939456    12.327278    3218984.4 0.0082759103    204.55306    1693.7578   -34.761909    7.7383294    231.57664            0 
  165500       165498    100.14513     11.78815    3229884.1 0.0082479819    205.07845     1697.348   -34.370007    7.5142538     231.9342            0 
  166000       165998    99.990765    11.742457    3233552.8 0.0082386242    204.37252    1694.3418   -35.307488    7.7960889    231.88392            0 
  166500       166498    100.15772    10.768832    3235129.6 0.0082346085    204.32959    1696.7867    -34.94739    7.8837428    231.39324            0 
  167000       166998    100.03134    10.232381    3228613.4 0.0082512282    205.33608      1695.91    -32.34734    7.8960614    229.78736            0 
  167500       167498    99.864139    9.9696783    3214415.2 0.0082876742    209.35582    1697.4383   -30.765086    8.3681441    231.75276            0 
  168000       167998    100.02662    8.7855904      3190074 0.0083509116    204.50822    1695.0118    -35.16621    7.9439625    231.73047            0 
  168500       168498    99.969549    7.7914463    3167951.5 0.0084092278    207.78804    1697.4412   -32.773499    7.7481362     232.8134            0 
  169000       168998    99.801439    8.2847808    3150868.5 0.0084548201    208.52479     1695.673   -32.269789    8.0700127    232.72457            0 
  169500       169498    99.947762     9.039294      3144429 0.0084721346    205.90763    1695.2362   -32.751027    8.6808636     229.9778            0 
  170000       169998    100.00973    9.2727286    3151946.2 0.0084519293    207.30344    1697.5554   -32.760856    7.8173093    232.24699            0 
  170500       170498    99.832242    9.6743968    3153908.1 0.0084466715    211.29544    1698.9026   -28.413103    7.9957292    231.71281            0 
  171000       170998    99.942934    9.5686796    3149351.7 0.0084588921    209.12102    1698.3776   -30.409543    8.6554958    230.87507            0 
  171500       171498    99.885208    9.7946999    3148323.4 0.0084616549    208.91665    1697.3131   -32.692176     7.932676    233.67615            0 
  172000       171998    99.987714    10.610679    3143678.6 0.0084741571    203.88455    1693.8084   -37.545712    7.7899444    233.64031            0 
  172500       172498    99.962223    11.854769    3150565.3 0.0084556335    210.30555    1699.8496   -30.019326    8.3283978    231.99648            0 
  173000       172998    100.06601    12.632033    3157509.9 0.0084370365    208.21237     1699.303   -32.029079    8.7534028    231.48805            0 
  173500       173498    100.30293    11.910478    3156060.1 0.0084409121    201.27784    1695.8987   -37.659379    8.0222796    230.91494            0 
  174000       173998    99.670539    11.466621      3158129 0.0084353823     209.2935    1694.4911    -32.24104    8.2634008    233.27114            0 
  174500       174498    99.885736    9.6191376    3160619.6 0.0084287354    207.11408    1695.5184   -34.901211    8.7872121    233.22808            0 
  175000       174998    100.02536    8.6202179    3171992.4 0.0083985149    204.93313     1695.418   -36.323841    8.2684386    232.98853            0 
  175500       175498    100.00087    8.6487602    3181796.7  0.008372636    205.38792    1695.5079    -35.90701    8.1703559    233.12457            0 
  176000       175998    100.00408     9.555231    3179004.9 0.0083799888    204.42207    1694.5897   -36.612874    8.7120722    232.32287            0 
  176500       176498    100.13277    10.266108    3170442.9 0.0084026196    197.74217    1689.8275   -43.179546    8.6582942    232.26342            0 
  177000       176998    100.05109    10.328185      3168732 0.0084071564    204.33034    1695.1985   -37.302727    8.3859094    233.24716            0 
  177500       177498    100.00118    10.002166    3166381.7  0.008413397    205.63848     1695.763   -35.274485    8.9910907    231.92187            0 
  178000       177998     100.2362     9.249418    3166816.9 0.0084122408     200.9273    1694.5539   -40.384999    8.6238626    232.68843            0 
  178500       178498    99.978786    9.8385978    3162774.2 0.0084229932    203.71495    1693.5058   -37.283831    8.3113117    232.68747            0 
  179000       178998    100.02579    10.781229    3161195.5 0.0084271998    208.76645    1699.2576   -32.593545    8.4983301    232.86167            0 
  179500       179498    100.04289    12.236092    3154997.2 0.0084437558    210.69771    1701.4438   -30.712002    8.6119589    232.79776            0 
  180000       179998    99.978726    12.945817    3144931.1 0.0084707821    213.42084    1703.2108   -28.365605    8.3512661    233.43517            0 
  180500       180498    100.02584    13.504051    3125739.6 0.0085227911    209.79046    1700.2825   -31.796885    8.6188144    232.96853            0 
  181000       180998    99.867216    12.382029    3117020.3  0.008546632     209.2283    1697.3566   -33.987558    9.1657508    234.05011            0 
  181500       181498    99.938976    10.346101    3111643.5 0.0085614005     209.7459    1698.9435    -31.14763     8.331455    232.56208            0 
  182000       181998    100.21352    9.3088869    3117330.8 0.0085457808    203.99437     1697.283   -36.116569    8.5586486    231.55229            0 
  182500       182498    99.955303    8.7348493    3126446.8 0.0085208632    206.13438    1695.5753   -35.227378    9.0113332    232.35042            0 
  183000       182998    99.860768    8.8854088    3129908.1 0.0085114403    208.73249    1696.7647   -34.548193    8.7206847       234.56            0 
  183500       183498    99.869981    8.9474633    3127031.8 0.0085192691     208.8206    1696.9901   -34.879349    9.0222968    234.67765            0 
  184000       183998    99.906235    9.7098406    3128469.5 0.0085153543    205.72337    1694.4331   -36.373336    9.3432714    232.75344            0 
  184500       184498    100.02631    9.7340981    3139244.5 0.0084861266    208.06331    1698.5623   -33.584064    9.1210027    232.52637            0 
  185000       184998    99.980558    10.505452    3145778.3 0.0084685009    209.23895    1699.0562   -33.853307    8.5199727    234.57229            0 
  185500       185498    99.840455    10.074529      3155096 0.0084434915     208.6745     1696.404    -35.75993    9.0924856    235.34194            0 
  186000       185998     99.99514    10.455359    3159116.5 0.0084327455    209.95827    1699.9928   -33.349227    8.6525214    234.65497            0 
  186500       186498    100.08818    10.222465    3160134.2 0.0084300298    205.90946    1697.3304   -37.334823    8.4616165    234.78266            0 
  187000       186998    99.949721    10.536124    3162997.9 0.0084223975    208.81318    1698.1709   -35.030315    9.3586419    234.48486            0 
  187500       187498     100.0815    10.405864    3159777.2 0.0084309823    204.16946    1695.4909   -39.871946    8.7722063     235.2692            0 
  188000       187998    100.14858    10.065615    3157151.9 0.0084379931    205.55014    1697.8711   -37.405713    8.6981253    234.25773            0 
  188500       188498    100.00246    10.659996      3151446 0.0084532707    208.56309    1698.7067   -36.147762    9.3557876    235.35506            0 
  189000       188998    100.19501    9.0634716    3139734.7 0.0084848017       207.52    1700.5328   -36.068823    9.8396083    233.74921            0 
  189500       189498    100.03896     9.306346    3123000.8 0.0085302655    203.41809    1694.1057   -40.905981    9.1999378    235.12413            0 
  190000       189998     100.0717    7.0672824    3121990.5  0.008533026    206.36047    1697.5358   -38.265109    9.3595773      235.266            0 
  190500       190498    100.12941    6.7163791    3116883.5 0.0085470073    205.91306    1697.9483   -37.591208     9.381162    234.12311            0 
  191000       190998    99.924291    7.8142218    3108213.4 0.0085708485     210.7148    1699.6936   -33.172606    9.4479163    234.43949            0 
  191500       191498    100.09795    8.1289849    3097326.1 0.0086009754     206.5321    1698.0986   -37.112623    9.5230584    234.12167            0 
  192000       191998    100.06776    8.8776568    3094462.2 0.0086089357    204.41954    1695.5362   -39.215532    9.0842805    234.55079            0 
  192500       192498    99.879516     8.662118    3095628.8 0.0086056914    208.78565    1697.0973   -36.248716    9.1822151    235.85216            0 
  193000       192998    100.10693    10.036919    3083870.4 0.0086385036    207.80489    1699.5051   -36.519061    9.3040815    235.01987            0 
  193500       193498    100.05504    11.372945    3075418.6 0.0086622438    205.28567    1696.2127   -38.145042    9.4101979    234.02051            0 
  194000       193998    99.823785    12.445886    3082548.5 0.0086422083    209.81392    1697.2951   -34.054037    8.9979307    234.87003            0 
  194500       194498     99.96861    11.374891    3093926.1 0.0086104272    212.12016    1701.7594   -32.541504    9.3145926    235.34707            0 
  195000       194998     99.89847    11.603985    3094831.6  0.008607908    209.75833    1698.3524   -35.491099    9.6532564    235.59618            0 
  195500       195498    99.875055    10.838945    3100638.5 0.0085917871    210.83125    1699.0764   -33.811277    9.5580102    235.08452            0 
  196000       195998    100.13989    10.139753    3109109.5 0.0085683782    208.37258    1700.5641    -36.92878    9.0168458    236.28451            0 
  196500       196498    99.897802    11.369559    3119847.1 0.0085388882    212.19117    1700.7753   -34.427632     9.484825    237.13398            0 
  197000       196998    100.01659    10.227961    3128617.3 0.0085149518    211.80174    1702.1559   -31.746568    9.5929408    233.95537            0 
  197500       197498    100.04676    9.8681493    3134688.1 0.0084984613    212.02913    1702.8329   -33.083001     9.524454    235.58768            0 
  198000       197998    100.09558    9.5177516    3146005.5 0.0084678892     216.8974    1708.4286   -30.074525    9.8597489    237.11217            0 
  198500       198498    99.896044    8.1426912    3155216.4 0.0084431693    217.96079    1706.5187   -29.785144    9.8317835    237.91415            0 
  199000       198998    100.02805     6.911493      3152030 0.0084517044    215.36541    1705.8904   -31.320548    10.215012    236.47094            0 
  199500       199498    100.15312    6.0278624    3142431.4 0.0084775202    211.76625    1704.1549   -34.188304    9.7811385    236.17342            0 
  200000       199998    99.959833    6.2711199    3133874.8 0.0085006669    213.63072    1703.1391   -33.581582    10.686493    236.52581            0 
  200500       200498    100.01222    7.2857588    3124616.7 0.0085258541    209.63812    1699.9271   -37.996064    9.9796168    237.65457            0 
  201000       200998    100.01182    8.1223571    3115396.3 0.0085510873    213.62838    1703.9114   -32.484878    9.5111584     236.6021            0 
  201500       201498    100.16141    9.9202984    3105921.3 0.0085771734    207.55536    1700.0675   -38.326406    9.8921539    235.98961            0 
  202000       201998    100.04097    11.803245    3110726.1 0.0085639252    210.80849     1701.526   -34.833407    9.8484479    235.79345            0 
  202500       202498    99.984308    14.570074    3111552.8   0.00856165    211.50684      1701.38   -34.855749    9.2546684    237.10793            0 
  203000       202998    99.940913    13.885078    3116466.1  0.008548152    212.30915    1701.5356   -35.138443    9.7750215    237.67257            0 
  203500       203498    100.08651    14.253611    3113807.8 0.0085554498    212.71575    1704.1118   -34.515048    9.7866699    237.44413            0 
  204000       203998    100.06288    13.852706    3108971.9 0.0085687574    209.36039    1700.4044   -36.582049    9.3191031    236.62334            0 
  204500       204498    100.15842    12.179936      3101777 0.0085886334     210.2813    1702.7489   -35.092962    9.8787774    235.49549            0 
  205000       204998    99.710561    10.511812    3099949.9 0.0085936957    218.66659    1704.4606   -28.755288    10.331574    237.09031            0 
  205500       205498    99.900019    8.6601361    3103571.4 0.0085836679    211.80014    1700.4173     -37.1816    9.9089586    239.07278            0 
  206000       205998    99.715507    7.0782266    3110906.8  0.008563428    209.58056    1695.4483   -38.958615    9.9441159    238.59506            0 
  206500       206498    99.967667    6.2379225    3119093.4 0.0085409516    210.73762    1700.3628   -37.102567    10.392987     237.4472            0 
  207000       206998    99.678407    6.1060482    3123958.9 0.0085276493    213.40011     1698.715   -34.998995    10.723049    237.67605            0 
  207500       207498    99.949684    6.5005449    3120696.2 0.0085365651     210.1478     1699.505   -36.304756    10.331484    236.12107            0 
  208000       207998    99.885642    8.5680211    3116467.8 0.0085481472     209.1586    1697.5615   -40.365061    10.190904    239.33276            0 
  208500       208498    100.08796     8.988085    3120749.2 0.0085364199    211.48569    1702.9034   -36.809432    10.126461    238.16866            0 
  209000       208998    100.00886    10.094305      3114960  0.008552285    207.74756    1697.9865   -38.964182    10.299135    236.41261            0 
  209500       209498    100.00048     11.37978    3106395.4 0.0085758646    207.67942    1697.7935   -39.514392    10.153195    237.04062            0 
  210000       209998    100.07225    10.702582      3109156 0.0085682501    214.38836    1705.5718   -32.247025    9.3177409    237.31764            0 
  210500       210498    100.11132     11.94822    3111950.6 0.0085605556    213.79605    1705.5619   -34.281013    9.8549406    238.22213            0 
  211000       210998    99.823974    13.263406    3124174.8 0.0085270599    214.18996    1701.6739   -35.182294     10.61824    238.75401            0 
  211500       211498    99.825626    12.591267    3148453.3 0.0084613058    214.62047    1702.1291   -34.742077    10.206526    239.15602            0 
  212000       211998    99.840195    11.622728    3160202.2 0.0084298484    220.93341    1708.6591   -27.598467    10.295633    238.23624            0 
  212500       212498      99.9287    10.774266    3159552.4 0.0084315821    220.14975    1709.1942   -29.245993    10.677739      238.718            0 
  213000       212998    100.14992    9.2075531    3160107.9    0.0084301    214.42341    1706.7643   -34.474705    10.162828    238.73529            0 
  213500       213498    100.01407    7.7050759    3163291.5 0.0084216159    217.55427    1707.8708   -31.036948    10.652803    237.93841            0 
  214000       213998    100.04338    9.1810271    3161861.7 0.0084254242    216.52354    1707.2769   -32.097888      10.4963    238.12513            0 
  214500       214498    100.07383    8.2490389      3164166 0.0084192884    217.69602    1708.9031   -32.272395     10.35498    239.61343            0 
  215000       214998    100.18462    9.4680942    3140821.7 0.0084818652    213.69634    1706.5544    -36.58614    10.911467    239.37101            0 
  215500       215498    100.10211    8.5620738    3123102.2 0.0085299884    213.02646     1704.655   -36.908208    10.770072     239.1646            0 
  216000       215998    99.859303    9.2870221    3112209.5 0.0085598433    214.05819    1702.0686   -36.276937    10.359086    239.97604            0 
  216500       216498    100.04882     8.391236    3106883.6 0.0085745169    214.61163     1705.446   -34.217628    10.418841    238.41042            0 
  217000       216998    100.17966    9.6053804    3096688.5 0.0086027464    213.65021    1706.4344   -36.294025    11.018636     238.9256            0 
  217500       217498    100.07688    11.148254    3094369.1 0.0086091947     208.4479    1699.7004   -41.008579    10.580604    238.87587            0 
  218000       217998    99.923532    12.688033    3096395.2 0.0086035613    213.62885    1702.5963   -36.011618     10.29324    239.34722            0 
  218500       218498    100.00211    11.938908    3090990.4 0.0086186053    214.99691    1705.1353   -34.227911    10.832006    238.39281            0 
  219000       218998    99.864924    11.667558    3086220.7 0.0086319252    218.58234    1706.6765   -32.253452    10.875926    239.95986            0 
  219500       219498    99.806556     9.700194    3086448.5  0.008631288    215.98402    1703.2084    -35.64674    10.839932    240.79083            0 
  220000       219998    100.09584    7.2049698      3090821 0.0086190775    211.18691     1702.722   -39.149173    10.783498    239.55259            0 
  220500       220498    100.09306    6.2580644    3097935.2 0.0085992844    213.94671    1705.4404   -35.321312     10.88064    238.38738            0 
  221000       220998    99.986063    8.0304952    3107120.3 0.0085738636    216.53847    1706.4377   -35.136898    11.376468     240.2989            0 
  221500       221498    100.15286    8.7973629    3114753.4 0.0085528524    212.37021    1704.7549   -37.941847    11.160825    239.15123            0 
  222000       221998    100.08588    9.3958021    3122475.7    0.0085317    210.55443     1701.941   -39.441966    10.883629    239.11277            0 
  222500       222498    99.842848    11.167542      3127864 0.0085170026    219.54489    1707.3101   -33.360727    10.637723    242.26789            0 
  223000       222998    99.872075    11.868156    3126194.4 0.0085215513    219.32386    1707.5246   -34.128604    11.004081    242.44838            0 
  223500       223498    100.25559     11.84254    3115129.4   0.00855182    212.36705    1706.2826   -35.874961    10.559066    237.68294            0 
  224000       223998    100.01943    12.771264    3116542.4 0.0085479426    217.79847     1708.195   -31.379902    10.532779    238.64559            0 
  224500       224498    100.02798    12.091644    3123412.4 0.0085291413    217.38232    1707.9062   -33.933222    10.794644     240.5209            0 
  225000       224998    99.726646    10.855849    3126839.5 0.0085197933     223.7844    1709.8181   -29.439459    11.105994    242.11787            0 
  225500       225498     99.92187    10.064999    3129167.8 0.0085134539    221.97616    1710.9189   -29.660534     10.92613    240.71056            0 
  226000       225998      99.8956    9.8944672    3129154.4 0.0085134904    221.37396    1709.9252   -31.679088     11.09251    241.96054            0 
  226500       226498     100.0726    9.2474255    3129773.8 0.0085118054    218.59703    1709.7858   -33.059039    11.260019    240.39605            0 
  227000       226998    100.06957    9.5342338    3132996.9  0.008503049    215.38472    1706.5283    -35.18134     11.04347    239.52259            0 
  227500       227498    99.687939    10.609045    3148106.2 0.0084622387    221.12142    1706.5783   -33.175744    11.363363     242.9338            0 
  228000       227998    99.903716    8.8834277    3161897.9 0.0084253276    221.60532    1710.2775   -31.336487    11.137249    241.80456            0 
  228500       228498     100.0212    8.5555168    3166726.6 0.0084124805    219.61371    1710.0365   -32.824243    11.170092    241.26786            0 
  229000       228998    100.02053    8.7946621    3161280.2 0.0084269739    222.48876    1712.9015   -30.128192    11.882422    240.73453            0 
  229500       229498    99.987325    10.071063    3154756.6 0.0084443997    222.64913    1712.5672   -30.238278     10.89489    241.99252            0 
  230000       229998    99.773589    11.188339    3157804.9 0.0084362482     225.2686    1712.0018   -27.628951     11.41243    241.48512            0 
  230500       230498    100.09583    11.169825    3169368.2 0.0084054689     220.3888    1711.9237   -32.327123    12.107337    240.60858            0 
  231000       230998    99.888021    11.925282    3173120.6  0.008395529    220.87382    1709.3122   -33.428384    11.518109    242.78409            0 
  231500       231498    100.07527     12.32016    3168406.9 0.0084080191     223.8772    1715.1057   -29.076216    10.525178    242.42824            0 
  232000       231998    100.00474    12.334904    3167426.4 0.0084106219    218.59521    1708.7728   -34.068407    11.102779    241.56084            0 
  232500       232498    100.00983    11.381742    3177077.3 0.0083850733    218.57661    1708.8301   -34.338941    11.487776    241.42778            0 
  233000       232998    100.12533    10.016826    3179459.9 0.0083787897    218.39053     1710.365    -33.48723    11.310377    240.56738            0 
  233500       233498    99.820444    10.391879    3173262.3 0.0083951542    224.69255    1712.1239   -29.734976    11.332307    243.09522            0 
  234000       233998    100.04117    9.8655381    3163947.7 0.0084198692    221.81586    1712.5362   -31.600661    11.870019     241.5465            0 
  234500       234498    99.735152    10.520887    3169170.8 0.0084059926    221.37936    1707.5398   -31.716674    11.672097    241.42393            0 
  235000       234998    99.824695    10.991132    3194682.5 0.0083388649    219.50732     1707.002   -33.316533    10.958638    241.86522            0 
  235500       235498    100.22781    10.048328    3208008.6 0.0083042252    214.71521    1708.2167    -38.87634    11.816287    241.77526            0 
  236000       235998    99.829037    10.385836    3209514.3 0.0083003293    216.37524    1703.9347   -38.360327    11.785918    242.94965            0 
  236500       236498    99.962297    9.9590484    3209747.5 0.0082997264    220.57052    1710.1157    -32.46894    11.174545    241.86491            0 
  237000       236998    99.946702    9.2273525    3198889.9 0.0083278971    221.90658    1711.2193   -32.271633    11.891936    242.28628            0 
  237500       237498    100.09742    8.6108842    3199188.2 0.0083271206    217.66174    1709.2203   -36.496769    11.579272    242.57924            0 
  238000       237998    99.944106     7.571273    3208119.7 0.0083039377    222.56313    1711.8372   -31.427256     12.12555    241.86484            0 
  238500       238498     100.0365    8.8918403    3209824.8 0.0082995265    219.89808    1710.5488   -34.421618    11.925507    242.39419            0 
  239000       238998    99.934075    9.9066315      3208270 0.0083035486    218.67936     1707.804   -35.519664    11.246712    242.95232            0 
  239500       239498    100.01994    11.214131    3212724.2 0.0082920363    217.90686     1708.311    -36.27699    11.753437    242.43042            0 
  240000       239998    100.09297    12.112232    3223574.3 0.0082641265    218.21307    1709.7053   -35.789461    12.261603    241.74093            0 
  240500       240498    99.860881    12.503475    3237061.9 0.0082296931    220.82277    1708.8567   -34.138057    11.325824    243.63501            0 
[...]
  941500       941498    99.796664    14.838646    2619205.8  0.010171032    347.78171    1834.8587   -43.803455    63.172372    328.41279            0 
  942000       941998     100.0362    14.033911    2621568.2  0.010161867    344.93098    1835.5774   -43.687372    61.641966    326.97639            0 
  942500       942498    100.08514    14.927267    2627326.2  0.010139596    344.72386    1836.0995   -44.580971    63.339303    325.96553            0 
  943000       942998    99.774616    17.000485      2642492  0.010081403    348.24945    1834.9979   -41.853791    63.107574    326.99566            0 
  943500       943498    100.28084     16.31004    2660713.3  0.010012362    346.09397    1840.3857   -41.436699    62.807942    324.72273            0 
  944000       943998    99.801934    17.446191    2668660.6 0.0099825453    350.74758    1837.9031   -40.755289     63.64157     327.8613            0 
  944500       944498    100.21547    14.559102    2668594.2 0.0099827941    350.78973    1844.1074    -36.32617    62.737486    324.37841            0 
  945000       944998     100.2336    11.550354    2664144.2 0.0099994686    346.24598    1839.8337   -40.463469    62.293479    324.41597            0 
  945500       945498    99.917702    12.437905    2662084.4  0.010007206    349.27882    1838.1594   -42.342618    62.344691    329.27675            0 
  946000       945998    99.860301    10.864896    2659771.2  0.010015909     348.8773    1836.9026   -44.242016    65.518788    327.60053            0 
  946500       946498     100.1134     8.779525    2657586.4  0.010024143    346.15186    1837.9486   -42.392778     63.56633    324.97831            0 
  947000       946998    99.743918    9.1794434    2658849.7   0.01001938    350.94731    1837.2384   -39.939839    63.662501    327.22464            0 
  947500       947498    100.19713    5.9909397    2659584.8  0.010016611    344.33161    1837.3761   -43.926722    62.622649    325.63568            0 
  948000       947998    100.07802     5.718694    2662264.5  0.010006529    343.15332    1834.4229   -46.350199    64.721029    324.78249            0 
  948500       948498    99.865643    6.8110012    2662925.7  0.010004044    349.21414     1837.319   -43.624178    65.466732    327.37159            0 
  949000       948998     100.0157    8.2039068    2662406.1  0.010005997    348.22146    1838.5624   -42.007453    64.094684    326.13423            0 
  949500       949498    100.01247    8.9675144    2659921.7  0.010015342     353.1757    1843.4685   -39.253753    64.994879    327.43458            0 
  950000       949998    100.00801    8.6992394    2654313.8  0.010036502    346.61595    1836.8423    -44.77968    64.177297    327.21833            0 
  950500       950498    99.619857    9.2113819    2652538.5   0.01004322    354.02901    1838.4714    -40.98902    65.222219    329.79581            0 
  951000       950998    99.847873    9.9861734    2645387.2  0.010070369    354.31178    1842.1519   -39.614781    64.609597    329.31697            0 
  951500       951498    100.38956    5.7277375    2639204.6   0.01009396    344.38899    1840.3008   -41.636976     62.92112    323.10484            0 
  952000       951998    99.926631    7.2594286      2630144  0.010128733    352.12017    1841.1338    -39.92172    64.998391     327.0435            0 
  952500       952498    99.803113    10.726185    2635843.5  0.010106831    352.98085     1840.154   -40.959782    62.430208    331.51042            0 
  953000       952998    99.812937    9.5445024      2647361  0.010062861    356.26325    1843.5828   -37.372737    64.258452    329.37753            0 
  953500       953498    100.06516    8.4839037    2660041.2  0.010014892    349.49613     1840.574   -42.630441    67.001623    325.12494            0 
  954000       953998    100.03247    9.2995543    2674441.5 0.0099609679    347.88575    1838.4765   -43.067587    63.352264    327.60107            0 
  954500       954498    100.05515    8.7676414      2679966 0.0099404345    349.55325     1840.482   -42.814955    63.149026    329.21918            0 
  955000       954998    99.937797    7.6048951    2680667.4 0.0099378335    353.49411    1842.6742   -40.795741    66.854388    327.43547            0 
  955500       955498    99.918494    9.7926284    2677979.8 0.0099478071    353.76471    1842.6571   -42.031665    64.986073     330.8103            0 
  956000       955998    99.691583    8.8350132    2685909.2 0.0099184386    352.95462    1838.4658   -39.593117    63.173249    329.37449            0 
  956500       956498    100.00879    8.2435525    2686832.8 0.0099150293    349.48575    1839.7236   -43.220146    65.854314    326.85158            0 
  957000       956998    100.27283    9.5407852    2695338.1 0.0098837418     342.4664    1836.6388   -45.646306    64.888775    323.22393            0 
  957500       957498    99.478029    12.109565    2707435.6 0.0098395786    361.25804    1843.5871   -37.791832    64.573014    334.47686            0 
  958000       957998    100.01905    8.4500171    2711758.8  0.009823892    352.97494    1843.3658   -40.591622    65.418128    328.14843            0 
  958500       958498    100.01369    7.1992439    2710559.7 0.0098282381    354.16685    1844.4778   -41.052842    64.768722    330.45097            0 
  959000       958998    99.606662    7.8552696    2709584.3 0.0098317762    357.37968    1841.6255   -38.215826    65.581886    330.01362            0 
  959500       959498    100.15879     6.048108    2701288.8  0.009861969    355.46194     1847.935   -37.673701    64.494306    328.64134            0 
  960000       959998    100.15502    5.0747357    2693937.6   0.00988888    350.82798    1843.2449   -41.666156    66.821448    325.67269            0 
  960500       960498    99.772624    8.9176944    2694490.7 0.0098868504    357.67399    1844.3928   -40.291607    64.550044    333.41555            0 
  961000       960998    99.668076    11.012577    2698755.2 0.0098712273    354.52082    1839.6817   -41.215006     65.56077    330.17506            0 
  961500       961498    99.906921    10.958385    2709611.8 0.0098316763    352.75561    1841.4756     -41.1796    66.436301    327.49891            0 
  962000       961998    99.975525    10.253908    2718259.8 0.0098003971    350.25156    1839.9938   -43.150363    64.648775    328.75314            0 
  962500       962498    99.943606    8.4149399    2722893.8 0.0097837182    352.76426    1842.0309   -42.587264    64.660281    330.69124            0 
  963000       962998    99.880897    8.5854182    2721897.5 0.0097872994    353.33454    1841.6667   -41.655164    66.843431    328.14627            0 
  963500       963498    100.06396    7.6330708    2718280.6 0.0098003223    350.11303     1841.173   -45.358329    66.913884    328.55748            0 
  964000       963998    99.722162    10.815133      2721885 0.0097873444     358.0605    1844.0274   -39.258223    65.252709    332.06601            0 
  964500       964498     99.80312    10.500935    2718117.3 0.0098009112    354.19935    1841.3726   -43.271543    65.306284    332.16461            0 
  965000       964998    100.09889    11.725005    2710545.6 0.0098282891    349.00084    1840.5813   -45.503464    66.942133    327.56217            0 
  965500       965498    100.42263    8.2321263    2698093.4 0.0098736487    343.02902    1839.4336   -45.289994    64.720328    323.59869            0 
  966000       965998    100.01808    9.0996291    2693497.2 0.0098904971    349.83807    1840.2145   -44.661301    65.773836    328.72554            0 
  966500       966498    100.00041    9.4618937    2688854.7 0.0099075738    347.88719    1838.0002   -49.265659    66.999097    330.15375            0 
  967000       966998    99.994757    11.585444    2694368.8 0.0098872975    348.04131    1838.0701   -46.179619    64.147263    330.07367            0 
  967500       967498    100.06191    10.831907    2696421.4  0.009879771    348.19562    1839.2252   -46.223441    65.997037    328.42203            0 
  968000       967998     100.0676    8.4398864    2704461.2 0.0098504004    345.26514    1836.3794   -48.939976     66.55402     327.6511            0 
  968500       968498    100.11498    10.748078    2698466.1 0.0098722849    350.27283    1842.0931   -43.841951    64.697914    329.41686            0 
  969000       968998    100.04249     11.13143    2689441.7 0.0099054113    349.25855    1839.9986   -44.789285    65.552773    328.49506            0 
  969500       969498    99.911749    9.5818818    2683579.7 0.0099270487    354.90925    1843.7012   -40.018682    66.443393    328.48454            0 
  970000       969998    100.00436    8.1476406    2681377.1 0.0099352029    358.48855    1848.6604   -35.825659    66.440299    327.87391            0 
  970500       970498    99.945551     10.60345    2681174.4 0.0099359543    353.24999    1842.5456   -43.595433    65.969721     330.8757            0 
  971000       970998    100.14992    9.1143463    2690355.7  0.009902046    352.69314    1845.0341   -40.906606    65.332579    328.26717            0 
  971500       971498    100.11106    8.3464665    2696711.9 0.0098787066    356.48808      1848.25    -39.89976     65.06021    331.32763            0 
  972000       971998    99.780482    9.5072475    2694727.4 0.0098859816    359.07192    1845.9078   -41.144312    67.293052    332.92318            0 
  972500       972498    99.955179    10.512892    2693262.9 0.0098913573    347.93775    1837.3768   -46.503384    64.852913    329.58823            0 
  973000       972998    100.32392    11.230837      2705132 0.0098479579    347.32225     1842.256   -43.530831    64.894473    325.95861            0 
  973500       973498    99.937981     12.45777    2716741.4 0.0098058747    351.56965    1840.7524   -44.413475    65.092052    330.89107            0 
  974000       973998    99.714981    12.226753    2737602.8  0.009731151    354.14042    1840.0003   -43.886956    67.141092    330.88628            0 
  974500       974498    99.633218     9.734836    2744694.7 0.0097060071    358.17678    1842.8183   -40.506826    65.855162    332.82845            0 
  975000       974998    99.833209    9.1999877    2750591.6 0.0096851986    356.21927    1843.8409   -40.726208    67.051563    329.89392            0 
  975500       975498    100.04403    8.1198086    2748188.8 0.0096936666    356.59954    1847.3626   -39.371204    66.817557    329.15319            0 
  976000       975998    99.947719     9.287187    2742891.7 0.0097123872    357.90051    1847.2284   -39.894828    65.368325    332.42702            0 
  976500       976498    99.716054    10.506103    2736311.8  0.009735742    363.79974    1849.6756   -38.485614    67.155583    335.12977            0 
  977000       976998    100.09832    9.5954553    2730438.2 0.0097566851    357.73586    1849.3079   -39.191072    66.532653    330.39428            0 
  977500       977498    99.971373    9.2513115    2733940.8 0.0097441852    359.23076    1848.9111   -36.150521    64.593617    330.78767            0 
  978000       977998    99.998507     11.13999    2732243.5 0.0097502387    358.75085    1848.8355    -39.07723    67.480188    330.34789            0 
  978500       978498     100.0135    11.206464    2732964.5 0.0097476664     355.8027    1846.1108   -42.748204    65.809354    332.74155            0 
  979000       978998    99.899928    9.0456838    2742231.6  0.009714725    362.58949    1851.2052   -35.525255     66.81612    331.29863            0 
  979500       979498    99.956395    9.4478639    2742893.9 0.0097123792    361.52666    1850.9839   -37.406739    68.766902     330.1665            0 
  980000       979998    100.22941     10.37604      2748699 0.0096918673      352.844    1846.3694   -42.763388    64.845767    330.76162            0 
  980500       980498    100.04033    10.736472    2753285.1 0.0096757238    359.11326    1849.8211    -39.64483    67.621057    331.13703            0 
  981000       980998    99.733423    10.697598    2748980.5 0.0096908748    358.40021    1844.5349   -41.829699    66.883763    333.34614            0 
  981500       981498    99.959858    10.656738    2751601.7 0.0096816431    358.49768    1848.0065   -40.029769    66.727567    331.79988            0 
  982000       981998    100.17701    10.251124    2749639.1 0.0096885537    357.87605    1850.6206   -37.920332    65.971567    329.82482            0 
  982500       982498    100.12906    10.907517    2739302.3 0.0097251136    359.08866    1851.1187   -37.743162    65.729242    331.10258            0 
  983000       982998    99.982532    13.117657    2735082.6 0.0097401175    360.39273    1850.2394   -38.566902    67.916478    331.04316            0 
  983500       983498    99.812461    14.320259    2734720.5 0.0097414071    359.18723    1846.4996    -42.56204     66.92982    334.81945            0 
  984000       983998     100.0782    12.038378    2736906.2 0.0097336276    360.12821    1851.4004   -38.888069    67.763443    331.25284            0 
  984500       984498    100.34423    12.474509    2735989.9 0.0097368874    357.73736    1852.9737    -38.38996    66.707702    329.41962            0 
  985000       984998    99.842389    15.554582    2738093.1 0.0097294085    365.33922    1853.0976   -35.685865    67.036863    333.98823            0 
  985500       985498    99.907227    15.178638    2739070.6 0.0097259363    360.89937    1849.6239   -37.330249    67.143496    331.08613            0 
  986000       985998    100.45288    13.386437    2754289.6  0.009672195     353.5429    1850.3982   -43.934645     67.30006    330.17749            0 
  986500       986498    99.685998    13.161709    2774092.9 0.0096031483     366.1351    1851.5631   -36.413261    68.951607    333.59675            0 
  987000       986998    100.11708    8.9947557    2785900.9 0.0095624457    362.00926    1853.8608   -37.234258    65.510376    333.73315            0 
  987500       987498    99.940388    7.1417274    2792304.9 0.0095405145    367.70301    1856.9217   -36.642225     67.84321    336.50203            0 
  988000       987998    100.09766      7.80871    2788725.8 0.0095527593    362.01616    1853.5784   -39.279255    69.449739    331.84568            0 
  988500       988498    100.42456    5.4247878    2790125.9 0.0095479655    351.50429    1847.9377   -45.111094    66.851123    329.76426            0 
  989000       988998    99.633038    7.6523685    2783000.3 0.0095724122    361.37805    1846.0169   -40.901475     69.54635    332.73318            0 
  989500       989498    100.25326    6.8250466      2789417 0.0095503921    354.27475    1848.1555   -42.468728    68.024828    328.71865            0 
  990000       989998    99.953447     8.380791    2797660.9 0.0095222498    361.42764    1850.8409   -41.424337    66.887367    335.96461            0 
  990500       990498    99.817222    8.6611612    2803457.8   0.00950256    362.40937    1849.7927   -40.311798     68.50458    334.21659            0 
  991000       990998    100.26171    8.6287063    2810366.5 0.0094791999    358.54019    1852.5469   -38.326686    68.344667    328.52221            0 
  991500       991498    99.852197    11.593806    2815007.9 0.0094635706     366.2778    1854.1823   -36.901688    68.945279    334.23421            0 
  992000       991998    99.773156    13.879452      2812449  0.009472181    366.30951    1853.0362   -35.439246    67.347395    334.40137            0 
  992500       992498    99.910106    14.785012    2803266.9  0.009503207     366.4553    1855.2227   -35.944046    67.059299    335.34005            0 
  993000       992998    99.718556    12.185904    2798150.6 0.0095205833    368.94592     1854.859    -38.62384    72.412074    335.15769            0 
  993500       993498    100.08171    10.464251    2798975.9 0.0095177761     358.9136    1850.2382   -39.615733    66.433319    332.09601            0 
  994000       993998    100.18108    8.5635913    2809025.9  0.009483724    357.46259    1850.2678    -39.16053    66.065566    330.55755            0 
  994500       994498     99.73965     8.289069    2817399.6  0.009455537    365.44986    1851.6773   -41.126018     72.73713    333.83875            0 
  995000       994998    100.04339    7.7931521    2823116.2   0.00943639    362.28633    1853.0398   -40.866791     66.95036    336.20276            0 
  995500       995498    99.866722    9.2604909    2821359.2 0.0094422665    362.66667    1850.7876   -40.040158    66.798205    335.90862            0 
  996000       995998    99.698114    8.4630359      2821291 0.0094424948    366.51787    1852.1264   -39.610053    70.756909    335.37102            0 
  996500       996498    100.24454     8.448704    2810144.7 0.0094799481    358.08554    1851.8363   -39.462781    67.822941    329.72538            0 
  997000       996998    99.965084    9.4186051    2803606.7 0.0095020553     363.4622    1853.0489   -38.783764    66.844522    335.40145            0 
  997500       997498    99.886952    6.4767697    2809290.7 0.0094828299    370.37468    1858.7971   -34.925013     70.98197    334.31772            0 
  998000       997998    99.606569     10.18016    2820913.8 0.0094437576    372.89732    1857.1417   -33.685657    68.651997    337.93098            0 
  998500       998498    100.22562    7.9965461    2827888.1 0.0094204668    363.45934    1856.9283   -36.054576     67.89264    331.62127            0 
  999000       998998    99.714986    10.061905    2824694.3 0.0094311182    368.15825    1854.0182   -38.752147    71.073637    335.83676            0 
  999500       999498    99.931846    10.269796    2826101.5 0.0094264222    361.58855    1850.6799   -42.971437    68.108881     336.4511            0 
 1000000       999998    100.36232    10.871017    2825913.3 0.0094270498    358.24687    1853.7527   -38.343776    67.829445     328.7612            0 
 1000002      1000000    100.34706     8.597223    2825907.5 0.0094270692    358.63265    1853.9112   -38.354393    67.972352    329.01469            0 
Loop time of 1010.21 on 8 procs for 1000000 steps with 5000 atoms

Performance: 85.527 ns/day, 0.281 hours/ns, 989.896 timesteps/s
100.0% CPU use with 8 MPI tasks x no OpenMP threads

MPI task timing breakdown:
Section |  min time  |  avg time  |  max time  |%varavg| %total
---------------------------------------------------------------
Pair    | 176.14     | 178.28     | 180.76     |  12.7 | 17.65
Bond    | 82.626     | 84.241     | 86.76      |  11.9 |  8.34
Kspace  | 548.92     | 552.85     | 556.46     |  10.6 | 54.73
Neigh   | 22.03      | 22.045     | 22.054     |   0.2 |  2.18
Comm    | 27.296     | 30.553     | 47.642     | 117.2 |  3.02
Output  | 0.94494    | 0.94624    | 0.94658    |   0.1 |  0.09
Modify  | 77.42      | 130.21     | 140.25     | 175.4 | 12.89
Other   |            | 11.09      |            |       |  1.10

Nlocal:        625.000 ave         686 max         551 min
Histogram: 1 0 1 1 0 0 2 1 1 1
Nghost:        967.500 ave        1041 max         862 min
Histogram: 1 1 0 0 0 2 1 0 1 2
Neighs:        6505.12 ave        7596 max        5083 min
Histogram: 1 0 1 0 1 1 1 1 0 2

Total # of neighbors = 52041
Ave neighs/atom = 10.408200
Ave special neighs/atom = 4.0000000
Neighbor list builds = 36134
Dangerous builds = 0

write_data   system_after_npt.data
System init for write_data ...
PPPM initialization ...
  using 12-bit tables for long-range coulomb (../kspace.cpp:340)
  G vector (1/distance) = 0.11394104
  grid = 15 15 15
  stencil order = 5
  estimated absolute RMS force accuracy = 0.035655005
  estimated relative force accuracy = 0.00010737399
  using double precision KISS FFT
  3d grid and FFT values/proc = 2197 512
Total wall time: 0:16:50
