LAMMPS (29 Sep 2021)
Reading data file ...
  orthogonal box = (0.0000000 0.0000000 0.0000000) to (103.50000 103.50000 103.50000)
  2 by 2 by 2 MPI processor grid
  reading atoms ...
  5000 atoms
  scanning bonds ...
  4 = max bonds/atom
  scanning angles ...
  6 = max angles/atom
  reading bonds ...
  4000 bonds
  reading angles ...
  6000 angles
Finding 1-2 1-3 1-4 neighbors ...
  special bond factors lj:    0        0        0.5     
  special bond factors coul:  0        0        0.5     
     4 = max # of 1-2 neighbors
     3 = max # of 1-3 neighbors
     3 = max # of 1-4 neighbors
     4 = max # of special neighbors
  special bonds CPU = 0.012 seconds
  read_data CPU = 0.046 seconds
Setting atom values ...
  1000 settings made for charge
Setting atom values ...
  4000 settings made for charge
Setting atom values ...
  1000 settings made for charge
Setting atom values ...
  4000 settings made for charge
WARNING: Using 'neigh_modify every 1 delay 0 check yes' setting during minimization (../min.cpp:188)
PPPM initialization ...
  using 12-bit tables for long-range coulomb (../kspace.cpp:340)
  G vector (1/distance) = 0.13982374
  grid = 15 15 15
  stencil order = 5
  estimated absolute RMS force accuracy = 0.025711481
  estimated relative force accuracy = 7.7429363e-05
  using double precision KISS FFT
  3d grid and FFT values/proc = 2197 512
Neighbor list info ...
  update every 1 steps, delay 0 steps, check yes
  max neighbors/atom: 2000, page size: 100000
  master list distance cutoff = 13
  ghost atom cutoff = 13
  binsize = 6.5, bins = 16 16 16
  1 neighbor lists, perpetual/occasional/extra = 1 0 0
  (1) pair lj/cut/coul/long, perpetual
      attributes: half, newton on
      pair build: half/bin/newton
      stencil: half/bin/3d
      bin: standard
Setting up cg style minimization ...
  Unit style    : real
  Current step  : 0
Per MPI rank memory allocation (min/avg/max) = 9.951 | 9.952 | 9.957 Mbytes
Step Temp E_pair E_mol TotEng Press 
       0            0    13.473059    169.81587    183.28893    62.917711 
       2            0     13.46648    168.45644    181.92292    1.7188027 
Loop time of 0.00579708 on 8 procs for 2 steps with 5000 atoms

85.8% CPU use with 8 MPI tasks x no OpenMP threads

Minimization stats:
  Stopping criterion = energy tolerance
  Energy initial, next-to-last, final = 
      183.288930482805   181.923003048985   181.922915101875
  Force two-norm initial, final = 43.104107 0.12623321
  Force max component initial, final = 0.68269501 0.0017082284
  Final line search alpha, max atom move = 1.0000000 0.0017082284
  Iterations, force evaluations = 2 4

MPI task timing breakdown:
Section |  min time  |  avg time  |  max time  |%varavg| %total
---------------------------------------------------------------
Pair    | 0.0018948  | 0.0019528  | 0.0019901  |   0.1 | 33.69
Bond    | 0.00037909 | 0.00039197 | 0.00040981 |   0.0 |  6.76
Kspace  | 0.0029192  | 0.0029573  | 0.0029952  |   0.0 | 51.01
Neigh   | 0          | 0          | 0          |   0.0 |  0.00
Comm    | 0.00027716 | 0.00028686 | 0.00030111 |   0.0 |  4.95
Output  | 0          | 0          | 0          |   0.0 |  0.00
Modify  | 0          | 0          | 0          |   0.0 |  0.00
Other   |            | 0.0002082  |            |       |  3.59

Nlocal:        625.000 ave         625 max         625 min
Histogram: 8 0 0 0 0 0 0 0 0 0
Nghost:        1935.00 ave        1935 max        1935 min
Histogram: 8 0 0 0 0 0 0 0 0 0
Neighs:        11250.0 ave       11625 max       10875 min
Histogram: 2 0 2 0 0 0 0 1 1 2

Total # of neighbors = 90000
Ave neighs/atom = 18.000000
Ave special neighs/atom = 4.0000000
Neighbor list builds = 0
Dangerous builds = 0
System init for write_data ...
PPPM initialization ...
  using 12-bit tables for long-range coulomb (../kspace.cpp:340)
  G vector (1/distance) = 0.13982374
  grid = 15 15 15
  stencil order = 5
  estimated absolute RMS force accuracy = 0.025711481
  estimated relative force accuracy = 7.7429363e-05
  using double precision KISS FFT
  3d grid and FFT values/proc = 2197 512
PPPM initialization ...
  using 12-bit tables for long-range coulomb (../kspace.cpp:340)
  G vector (1/distance) = 0.13982374
  grid = 15 15 15
  stencil order = 5
  estimated absolute RMS force accuracy = 0.025711481
  estimated relative force accuracy = 7.7429363e-05
  using double precision KISS FFT
  3d grid and FFT values/proc = 2197 512
Setting up Verlet run ...
  Unit style    : real
  Current step  : 2
  Time step     : 1
Per MPI rank memory allocation (min/avg/max) = 8.866 | 8.867 | 8.872 Mbytes
Step Time Temp Press Volume Density PotEng TotEng E_pair E_bond E_angle E_dihed 
       2            0            0    1.7188027    1108717.9  0.024027777    181.92292    181.92292     13.46648 1.4398946e-05    168.45642            0 
ERROR on proc 0: Out of range atoms - cannot compute PPPM (../pppm.cpp:1891)
ERROR on proc 1: Out of range atoms - cannot compute PPPM (../pppm.cpp:1891)
ERROR on proc 2: Out of range atoms - cannot compute PPPM (../pppm.cpp:1891)
ERROR on proc 4: Out of range atoms - cannot compute PPPM (../pppm.cpp:1891)
ERROR on proc 5: Out of range atoms - cannot compute PPPM (../pppm.cpp:1891)
ERROR on proc 6: Out of range atoms - cannot compute PPPM (../pppm.cpp:1891)
ERROR on proc 3: Out of range atoms - cannot compute PPPM (../pppm.cpp:1891)
ERROR on proc 7: Out of range atoms - cannot compute PPPM (../pppm.cpp:1891)
