LAMMPS (29 Sep 2021)

# ------------------------------- Initialization Section --------------------

include      "system.in.init"        # specify the style of force field used
  atom_style full
  units real
  bond_style harmonic
  angle_style harmonic
  dihedral_style opls
  improper_style harmonic
  pair_style lj/cut/coul/long 11.0 11.0
  pair_modify mix geometric
  special_bonds lj/coul 0.0 0.0 0.5
  kspace_style pppm 0.0001

# ------------------------------- Atom Definition Section -------------------

read_data    "system.data"
Reading data file ...
  orthogonal box = (0.0000000 0.0000000 0.0000000) to (103.50000 103.50000 103.50000)
  2 by 2 by 2 MPI processor grid
  reading atoms ...
  5000 atoms
  scanning bonds ...
  4 = max bonds/atom
  scanning angles ...
  6 = max angles/atom
  reading bonds ...
  4000 bonds
  reading angles ...
  6000 angles
Finding 1-2 1-3 1-4 neighbors ...
  special bond factors lj:    0        0        0.5     
  special bond factors coul:  0        0        0.5     
     4 = max # of 1-2 neighbors
     3 = max # of 1-3 neighbors
     3 = max # of 1-4 neighbors
     4 = max # of special neighbors
  special bonds CPU = 0.012 seconds
  read_data CPU = 0.069 seconds

# ------------------------------- Settings Section --------------------------

include      "system.in.settings"    # load the force field parameters
  pair_coeff 1 1 0.066 3.5
  pair_coeff 2 2 0.03 2.5
  bond_coeff 1 340.0 1.09
  angle_coeff 1 33.0 107.8
  set type 1 charge -0.24
Setting atom values ...
  1000 settings made for charge
  set type 2 charge 0.06
Setting atom values ...
  4000 settings made for charge
include      "system.in.charges"     # load the charge of each atom
  set type 1 charge -0.24
Setting atom values ...
  1000 settings made for charge
  set type 2 charge 0.06
Setting atom values ...
  4000 settings made for charge

# ------------------------------- Run Section -------------------------------


# -- minimization protocol --

thermo          500
minimize	1.0e-4 1.0e-6 100000 400000
WARNING: Using 'neigh_modify every 1 delay 0 check yes' setting during minimization (../min.cpp:188)
PPPM initialization ...
  using 12-bit tables for long-range coulomb (../kspace.cpp:340)
  G vector (1/distance) = 0.13982374
  grid = 15 15 15
  stencil order = 5
  estimated absolute RMS force accuracy = 0.025711481
  estimated relative force accuracy = 7.7429363e-05
  using double precision KISS FFT
  3d grid and FFT values/proc = 2197 512
Neighbor list info ...
  update every 1 steps, delay 0 steps, check yes
  max neighbors/atom: 2000, page size: 100000
  master list distance cutoff = 13
  ghost atom cutoff = 13
  binsize = 6.5, bins = 16 16 16
  1 neighbor lists, perpetual/occasional/extra = 1 0 0
  (1) pair lj/cut/coul/long, perpetual
      attributes: half, newton on
      pair build: half/bin/newton
      stencil: half/bin/3d
      bin: standard
Per MPI rank memory allocation (min/avg/max) = 9.951 | 9.952 | 9.957 Mbytes
Step Temp E_pair E_mol TotEng Press 
       0            0    13.473059    169.81587    183.28893    62.917711 
       2            0     13.46648    168.45644    181.92292    1.7188027 
Loop time of 0.00604847 on 8 procs for 2 steps with 5000 atoms

98.9% CPU use with 8 MPI tasks x no OpenMP threads

Minimization stats:
  Stopping criterion = energy tolerance
  Energy initial, next-to-last, final = 
      183.288930482805   181.923003048985   181.922915101875
  Force two-norm initial, final = 43.104107 0.12623321
  Force max component initial, final = 0.68269501 0.0017082284
  Final line search alpha, max atom move = 1.0000000 0.0017082284
  Iterations, force evaluations = 2 4

MPI task timing breakdown:
Section |  min time  |  avg time  |  max time  |%varavg| %total
---------------------------------------------------------------
Pair    | 0.0019045  | 0.0019535  | 0.0020036  |   0.1 | 32.30
Bond    | 0.00039323 | 0.00039834 | 0.00040662 |   0.0 |  6.59
Kspace  | 0.0030119  | 0.0030556  | 0.003105   |   0.1 | 50.52
Neigh   | 0          | 0          | 0          |   0.0 |  0.00
Comm    | 0.00031102 | 0.00033505 | 0.00034816 |   0.0 |  5.54
Output  | 0          | 0          | 0          |   0.0 |  0.00
Modify  | 0          | 0          | 0          |   0.0 |  0.00
Other   |            | 0.000306   |            |       |  5.06

Nlocal:        625.000 ave         625 max         625 min
Histogram: 8 0 0 0 0 0 0 0 0 0
Nghost:        1935.00 ave        1935 max        1935 min
Histogram: 8 0 0 0 0 0 0 0 0 0
Neighs:        11250.0 ave       11625 max       10875 min
Histogram: 2 0 2 0 0 0 0 1 1 2

Total # of neighbors = 90000
Ave neighs/atom = 18.000000
Ave special neighs/atom = 4.0000000
Neighbor list builds = 0
Dangerous builds = 0

# Optional: write the coordinates after minimization
write_data  	system_after_min.data
System init for write_data ...
PPPM initialization ...
  using 12-bit tables for long-range coulomb (../kspace.cpp:340)
  G vector (1/distance) = 0.13982374
  grid = 15 15 15
  stencil order = 5
  estimated absolute RMS force accuracy = 0.025711481
  estimated relative force accuracy = 7.7429363e-05
  using double precision KISS FFT
  3d grid and FFT values/proc = 2197 512


# -- simulation protocol --


timestep        1.0
dump            1 all custom 2500 traj_npt.lammpstrj id mol type x y z ix iy iz
thermo_style    custom step time temp press vol density pe etotal epair ebond eangle edihed
fix             fxnpt all npt temp 100.0 100.0 100.0 iso 1.0 1.0 1000.0 drag 1.0


# ----------------------------- Customization -------------------------------
variable	d equal density
variable 	pe equal epair

fix extra all print 100 "${d} ${pe}" file out.txt screen no

run             1000000
PPPM initialization ...
  using 12-bit tables for long-range coulomb (../kspace.cpp:340)
  G vector (1/distance) = 0.13982374
  grid = 15 15 15
  stencil order = 5
  estimated absolute RMS force accuracy = 0.025711481
  estimated relative force accuracy = 7.7429363e-05
  using double precision KISS FFT
  3d grid and FFT values/proc = 2197 512
Per MPI rank memory allocation (min/avg/max) = 8.866 | 8.867 | 8.872 Mbytes
Step Time Temp Press Volume Density PotEng TotEng E_pair E_bond E_angle E_dihed 
       2            0            0    1.7188027    1108717.9  0.024027777    181.92292    181.92292     13.46648 1.4398946e-05    168.45642            0 
     500          498 0.0004177936    1.5881362    1112156.9  0.023953479    181.83612    181.84235    13.379366 2.9696261e-05    168.45673            0 
    1000          998 0.0017704028    1.5916136    1119847.5  0.023788977    181.64206    181.66844    13.185457 2.1376618e-05    168.45658            0 
    1500         1498 0.0060514337    1.6823684    1129632.7  0.023582909    181.39907    181.48924    12.942545 4.2550517e-06    168.45652            0 
    2000         1998  0.018595845    1.8257844    1140064.1   0.02336713    181.14944    181.42654    12.692659 2.6249486e-05    168.45676            0 
    2500         2498  0.044307694    4.1671765    1152885.5  0.023107261    200.19673    200.85697    31.738816 8.9514964e-06    168.45791            0 
    3000         2998   0.22926308    5.5198503    1184719.4   0.02248636     213.4599    216.87616     45.00063 0.00012433356    168.45914            0 
    3500         3498    0.6940461    4.7093764    1222810.2  0.021785904    211.14124    221.48327    42.678996 0.00062731264    168.46162            0 
    4000         3998     2.198862     3.982376    1267078.1   0.02102477    208.34868    241.11408    39.885925 0.0025188165    168.46024            0 
    4500         4498    6.4134773    1.6600722      1306502  0.020390345    186.11618    281.68385    17.641175  0.010027668    168.46497            0 
    5000         4998    17.812981   -4.6697373    1337767.9  0.019913787    123.29156    388.72403   -45.278608  0.055902126    168.51427            0 
    5500         5498     43.21259   -2.3987206    1331973.3   0.02000042    136.41223    780.32604   -32.631967   0.29087871    168.75332            0 
    6000         5998    78.809345   -1.0059386    1332181.5  0.019997294    146.94742    1321.2909   -23.969259    1.0170211    169.89966            0 
    6500         6498    98.887376    5.5574998    1330447.9  0.020023351    208.44483    1681.9725    36.577408    1.6076545    170.25976            0 
    7000         6998    100.04211    5.6811854    1330760.6  0.020018646    212.24655    1702.9809    40.505098    1.7092381    170.03221            0 
    7500         7498    100.08219   -3.1907778      1331184   0.02001228    139.13221    1630.4638   -33.068664    1.7064632    170.49441            0 
    8000         7998    99.972551    4.2348392    1330944.7  0.020015878    210.68094    1700.3789    38.887402    1.7186934    170.07484            0 
    8500         8498    100.04436   -3.7572859      1331017   0.02001479    143.87414     1634.642   -28.439882     1.772553    170.54147            0 
    9000         8998    99.949634   -3.8460635    1331004.1  0.020014983    148.05436    1637.4108   -24.098809    1.7648162    170.38835            0 
    9500         9498    100.01667   -4.2236333    1331036.3  0.020014499    145.70324    1636.0586   -26.189809    1.8272252    170.06582            0 
   10000         9998    99.999655   -1.8212371    1330964.4  0.020015581    166.94355    1657.0453   -5.5781186    1.7836675      170.738            0 
   10500        10498    99.965023   -3.7004676    1331042.5  0.020014407     149.7637    1639.3494   -22.107295      1.80542    170.06557            0 
   11000        10998    100.07046    3.1048937    1330918.7  0.020016269    206.84746    1698.0043     34.86574    1.7960027    170.18572            0 
   11500        11498    99.921939   0.30861173    1330959.2   0.02001566    175.94338    1664.8871    3.6148489    1.7365081    170.59203            0 
   12000        11998    100.07156     3.436214    1330941.3  0.020015928    198.44265    1689.6159    26.486514    1.7256041    170.23053            0 
   12500        12498    100.00137    2.3414678    1330925.8  0.020016162    184.07911    1674.2064    11.804838    1.6312721      170.643            0 
   13000        12998    99.949324     5.333546    1330943.9   0.02001589    207.63424    1696.9861    35.847331    1.6511723    170.13574            0 
   13500        13498    100.14369    4.2281102    1330939.1  0.020015961    195.39498     1687.643    23.857055    1.6400972    169.89783            0 
   14000        13998    99.993603    3.9360476    1330802.4  0.020018018    194.21872    1684.2303     21.74528    1.6873212    170.78612            0 
   14500        14498    100.08962    4.5738987    1330923.4  0.020016198    203.93692    1695.3793    31.552364    1.7391387    170.64542            0 
   15000        14998    100.03225    4.1357817    1330961.4  0.020015626    204.32193    1694.9095    31.835549    1.6874744    170.79891            0 
   15500        15498    99.993432   0.56922138    1330943.1  0.020015902    176.08453    1666.0936    4.0032825    1.7253895    170.35586            0 
   16000        15998    100.06389  -0.30104272    1330984.7  0.020015276    173.00432    1664.0632    1.6491421    1.6931857    169.66199            0 
   16500        16498     99.97529  -0.29693853      1330956  0.020015707     177.7117    1667.4504    5.2222604    1.7762349    170.71321            0 
   17000        16998    99.959831  -0.90446979    1330972.2  0.020015464    175.92811    1665.4365    3.4460048      1.83973    170.64237            0 
   17500        17498    99.911689   -1.2488781    1330967.2  0.020015539    173.06666    1661.8577   0.64084576    1.8225769    170.60324            0 
   18000        17998    100.00382  -0.43056947    1330751.4  0.020018784    177.28141    1667.4453    4.7335812    1.8575055    170.69032            0 
   18500        18498    100.09783   0.25429254    1330873.7  0.020016945    179.51764    1671.0824    7.7529775    1.7326855    170.03198            0 
   19000        18998    99.996066   0.44916998    1330881.2  0.020016832    177.94423    1667.9926    5.6725978     1.719077    170.55256            0 
   19500        19498    100.03792    1.0291839      1330737  0.020019001    177.26798      1667.94    5.1695347    1.6869865    170.41145            0 
   20000        19998    99.924532    2.3367043      1330881  0.020016835    186.07752    1675.0599    14.428136    1.6675734    169.98181            0 
   20500        20498    99.981145    2.5044978    1330895.3  0.020016621    183.96295    1673.7889    11.370636    1.7443255    170.84799            0 
   21000        20998    100.05651    1.6791429    1330742.8  0.020018915    174.53407    1665.4831    2.3088211    1.6631019    170.56215            0 
   21500        21498    100.02596    1.8184953    1330852.6  0.020017262    176.40638    1666.9002    4.3008786     1.690036    170.41547            0 
   22000        21998     99.92779    3.3585618    1330817.9  0.020017784    191.57539    1680.6063    19.483431    1.6551353    170.43682            0 
   22500        22498    99.963063    1.7831532    1330838.1   0.02001748    180.46475    1670.0213    9.1040371    1.6447518    169.71596            0 
   23000        22998    99.915487    1.5273432    1330837.8  0.020017485    186.21417    1675.0618    13.747037    1.7483092    170.71882            0 
   23500        23498    99.926615   0.12907069    1330786.9  0.020018251    178.42158     1667.435    5.6789194    1.7569942    170.98567            0 
   24000        23998    99.962651   0.75264971    1330669.9  0.020020011    187.83365    1677.3841    15.542222    1.8389194    170.45251            0 
   24500        24498    99.983739  -0.68832475    1330652.1  0.020020278    177.07187    1666.9365    4.7208757    1.8135663    170.53743            0 
   25000        24998    100.06202  -0.83919797    1330536.3  0.020022021    174.72979    1665.7608    3.1698349    1.7750157    169.78494            0 
   25500        25498    100.03435  -0.26469937    1330542.1  0.020021934    179.60089    1670.2196    7.3950472    1.7909018    170.41494            0 
   26000        25998    100.00482    0.2191152    1330430.9  0.020023607    179.32811    1669.5069    6.6329031    1.7434013    170.95181            0 
   26500        26498    99.980044   0.55854536    1330319.3  0.020025287    177.36133    1667.1709    5.0516985    1.7889314     170.5207            0 
   27000        26998    99.971864     1.360343    1330227.5  0.020026668     179.9957    1669.6834    7.2862089     1.717443    170.99205            0 
   27500        27498     100.0634    1.9799022    1329988.1  0.020030273    180.03486    1671.0866    7.9707814    1.6908697    170.37321            0 
   28000        27998    99.994949    2.5507796    1329772.3  0.020033525    182.81576    1672.8474      11.0577    1.6519712    170.10609            0 
   28500        28498    100.03654    2.0681939    1329780.2  0.020033405    176.22361     1666.875    3.9285649    1.6225938    170.67245            0 
   29000        28998    100.00997     2.489416    1329216.5  0.020041901    180.11603    1670.3715    8.2241104    1.6949259    170.19699            0 
   29500        29498    100.01454    2.1222955    1329026.7  0.020044763    181.44759    1671.7712    8.6526352    1.6868515     171.1081            0 
   30000        29998    100.00498    1.1870754    1328666.6  0.020050196    177.38123    1667.5623    4.5473682    1.7333646    171.10049            0 
   30500        30498    100.01868    1.1328741    1328010.8  0.020060097     181.3389    1671.7242    9.5792459    1.7165094    170.04314            0 
   31000        30998    99.988076   0.36592526    1327394.4  0.020069413    180.20072      1670.13    8.0483512    1.7323922    170.41997            0 
   31500        31498    100.03011  -0.39906758      1326483  0.020083202    177.53381    1668.0894    5.6407619    1.8191325    170.07392            0 
   32000        31998    99.988407  -0.82060561    1325169.1  0.020103114    177.51148    1667.4457    4.7600022      1.81823    170.93325            0 
   32500        32498    99.934922   -1.0624192    1323660.7  0.020126023    175.31592    1664.4531    1.8753533     1.874081    171.56649            0 
   33000        32998    99.967721  0.012569163    1321182.8   0.02016377    181.13331    1670.7593    9.0487716    1.7886274    170.29592            0 
   33500        33498    100.06772   0.24216231    1318293.1  0.020207969    180.48132    1671.5974    8.1997151      1.74769    170.53391            0 
   34000        33998    100.06662    0.1218438    1314841.9  0.020261011    174.44117    1665.5408     2.463208    1.7377296    170.24023            0 
   34500        34498    100.03156    1.0258155    1311081.7   0.02031912    177.19734    1667.7746    5.0955716    1.6936465    170.40813            0 
   35000        34998    99.913126    1.5995637      1306496  0.020390438    178.22093    1667.0334    5.1880885    1.7581981    171.27464            0 
   35500        35498    99.984534    1.7495493    1301715.8  0.020465317    175.30286    1665.1793    3.0325456    1.6886131     170.5817            0 
   36000        35998    100.00644    1.7123174    1296401.7  0.020549207    174.61493    1664.8178    2.0933012    1.6784675    170.84316            0 
   36500        36498    100.01063    2.7337235    1291044.4  0.020634476    183.42887    1673.6943    11.013286    1.6540724    170.76151            0 
   37000        36998    100.05265    2.4207824    1286569.8  0.020706242    182.22262     1673.114    10.617113     1.613021    169.99249            0 
   37500        37498    100.00391    1.6272078    1281933.4  0.020781131      181.115    1671.2802    8.6508646    1.7310578    170.73308            0 
   38000        37998    100.00187   0.63291566    1279306.8  0.020823798    177.74435    1667.8792    5.3673381     1.747035    170.62998            0 
   38500        38498    99.949914  -0.30246114      1277033  0.020860876    175.03199    1664.3926    2.1651923    1.8259586    171.04084            0 
   39000        38998    99.953339  0.031973613    1274209.1  0.020907107    181.39879    1670.8104    8.2831401    1.8175658    171.29809            0 
   39500        39498    100.05032   -0.5165571    1273009.7  0.020926806    177.81488    1668.6716    6.0271651    1.7628089    170.02491            0 
   40000        39998    100.02251  -0.61271049    1271468.4  0.020952173    178.76907    1669.2114    6.5816931    1.7979697    170.38941            0 
   40500        40498    99.997608  -0.14577733      1269394  0.020986413    180.98427    1671.0556    8.6528409    1.7522721    170.57916            0 
   41000        40998    99.980772  0.086337559    1268714.5  0.020997652    179.04108    1668.8615    6.4108507    1.8133484    170.81688            0 
   41500        41498    99.949491   0.40095591    1266433.4  0.021035473    177.40679    1666.7611    4.1178254    1.7866027    171.50236            0 
   42000        41998    100.02695    1.3873284    1262789.8  0.021096168    180.16669    1670.6752    8.0261222    1.7314241    170.40915            0 
   42500        42498    100.00903       1.7418    1258970.2  0.021160172    179.05255     1669.294    6.8761641    1.7030607    170.47333            0 
   43000        42998    100.01094    2.0355659    1252795.7  0.021264462    177.47088    1667.7409    5.1127761    1.6131656    170.74493            0 
   43500        43498     100.0341    1.9234881    1247574.5  0.021353455    174.35645    1664.9715    2.3739054    1.6530181    170.32952            0 
   44000        43998    99.988256     1.797415    1239687.1  0.021489315     174.7359    1664.6679    1.9469341    1.6563547    171.13261            0 
   44500        44498    99.999207    1.4434907    1230084.8  0.021657064    174.70505    1664.8002     2.161727    1.7120494    170.83128            0 
   45000        44998    99.992422   0.76780679    1220137.7  0.021833622    173.02238    1663.0164   0.45221365    1.7376115    170.83255            0 
   45500        45498    99.985711   0.12246069    1208543.6  0.022043082    172.12417    1662.0182  -0.66305748    1.7045368    171.08269            0 
   46000        45998    100.03618  -0.26849266    1194949.1  0.022293858    173.10723    1663.7533    1.2303349     1.754526    170.12237            0 
   46500        46498    100.01823   -1.1883745    1180749.3  0.022561966    170.57537    1660.9539   -1.7392815    1.7445082    170.57015            0 
   47000        46998    100.02728    -1.994165    1164934.5   0.02286826    166.07851     1656.592   -6.6688436    1.8051689    170.94219            0 
   47500        47498    99.839122  -0.93534195    1147401.8  0.023217696    164.06129     1651.771   -9.6356383    1.8596756    171.83725            0 
   48000        47998    100.00469   -1.8840836    1129614.3  0.023583293    152.60131    1642.7782   -20.779983    1.7735385    171.60776            0 
   48500        48498    100.12327   -1.1299855    1113749.1  0.023919234    144.26959    1636.2134   -28.541545    1.7536032    171.05754            0 
   49000        48998    100.03493  -0.19225127    1102722.1  0.024158422    147.68329    1638.3108   -25.284795    1.6590282    171.30906            0 
   49500        49498    100.00253   0.83570005    1092872.9  0.024376144    148.30231     1638.447   -25.220275    1.6460218    171.87656            0 
   50000        49998     100.0462    2.3391213    1084080.8  0.024573837    143.88198    1634.6773   -29.660824    1.6092176    171.93358            0 
   50500        50498    99.889063    3.4624939    1082719.4  0.024604737    140.97805    1629.4319   -33.620208    1.6105312    172.98773            0 
   51000        50998    100.23081    2.3595022    1086677.9  0.024515108    128.60046    1622.1467   -45.336144    1.5296335    172.40697            0 
   51500        51498    99.996647    4.2991026    1099017.9  0.024239846    132.07749    1622.1345   -42.076305    1.4684527    172.68535            0 
   52000        51998    100.17344    3.5043243    1119522.8  0.023795876    124.40402    1617.0955   -49.935738    1.4813273    172.85843            0 
   52500        52498    100.02053    4.5386992    1146684.3  0.023232223    132.17863    1622.5915   -42.171576    1.4743361    172.87587            0 
   53000        52998     100.1728    4.4525535    1175143.5  0.022669593    125.08746    1617.7693   -49.689942    1.5113316    173.26607            0 
   53500        53498    100.04181    4.4032082    1210568.5  0.022006212    126.43284    1617.1628   -48.866269    1.5212277    173.77788            0 
   54000        53998    100.28864    3.2048957    1249906.4  0.021313616    119.81977    1614.2277   -55.150233     1.505466    173.46453            0 
   54500        54498    99.896433    4.9459322    1294336.9  0.020581987     125.1197    1613.6834   -50.521294    1.5244266    174.11656            0 
   55000        54998    99.823826    5.6706704    1341265.8  0.019861854    127.16964    1614.6514   -48.757108    1.5198228    174.40692            0 
   55500        55498    99.985926      6.57387    1392562.5   0.01913022    121.28909    1611.1863   -54.874433    1.5717836    174.59174            0 
   56000        55998    100.04275    6.1219086    1451755.3  0.018350217    117.07404     1607.818    -59.14124    1.4540189    174.76126            0 
   56500        56498    99.816752    7.6572266    1517469.4   0.01755556    118.23417    1605.6105    -58.52432    1.4191263    175.33936            0 
   57000        56998    99.705523     9.227087    1584445.6  0.016813469    120.38662    1606.1055   -56.498577    1.5005198    175.38468            0 
   57500        57498    100.05652    6.7140549    1658214.7  0.016065487    115.21924    1606.1685    -62.11138     1.384094    175.94652            0 
   58000        57998    99.991428    7.6163245    1733761.7  0.015365448    116.02601    1606.0052   -61.294996    1.4122233    175.90878            0 
   58500        58498     99.96517    7.6354934    1819162.3  0.014644117    122.33213    1611.9201   -55.462182    1.4056604    176.38865            0 
   59000        58998    99.912138    8.1051845    1907474.1  0.013966127    121.89843    1610.6961   -56.272091     1.404506    176.76602            0 
   59500        59498    99.950416    7.0060861      2005638  0.013282569    121.27655    1610.6446    -57.36419     1.354428    177.28631            0 
   60000        59998    100.10619    6.7140426    2106391.3  0.012647235    124.82319    1616.5125   -53.388412    1.4126596    176.79894            0 
   60500        60498     99.90783    6.9063409    2215654.1  0.012023549    125.89783    1614.6314   -53.284722    1.3949093    177.78765            0 
   61000        60998    99.857401    6.9207805    2329004.6  0.011438374    129.27902    1617.2611   -50.465894    1.4108667    178.33404            0 
   61500        61498    99.799765    6.3288916    2450762.1  0.010870099     132.8061    1619.9293   -46.796217    1.4621382    178.14018            0 
   62000        61998    99.686828     6.882692    2575239.2   0.01034468    136.22002    1621.6604      -44.177     1.505781    178.89124            0 
   62500        62498    99.686605    5.9337709    2710988.9  0.009826682    142.53153    1627.9685   -37.853366    1.4782343    178.90666            0 
   63000        62998    100.02635    4.9088883    2851646.7 0.0093419798    140.72209    1631.2217   -39.553067    1.5036104    178.77154            0 
   63500        63498    99.797576     5.404198    3000944.2 0.0088772146    139.26716    1626.3578   -41.591758    1.5186086    179.34031            0 
   64000        63998    99.802032      4.66489    3158969.5 0.0084331381    144.65258    1631.8096   -36.241807    1.5554705    179.33892            0 
   64500        64498    99.910057    4.4371854    3320597.5 0.0080226604    146.12483    1634.8915   -34.867777    1.5041377    179.48847            0 
   65000        64998     99.79836    4.6157563    3490595.6 0.0076319428    147.95956    1635.0619   -33.138799    1.5385531     179.5598            0 
   65500        65498    99.863482    4.2593747    3670957.4 0.0072569695    152.05896    1640.1316   -29.177107    1.5679513    179.66812            0 
   66000        65998    99.870603    4.3019299    3854713.8 0.0069110257     149.2576    1637.4364   -32.084753     1.621346      179.721            0 
   66500        66498    99.823156    3.8064261    4048588.1 0.0065800781     153.7532     1641.225   -28.044431    1.5634221    180.23421            0 
   67000        66998    99.950968    3.4415472    4247157.3 0.0062724369    151.78068     1641.157   -30.000947    1.5639505    180.21767            0 
   67500        67498     99.76972    3.5503798    4456672.5 0.0059775597    155.77547     1642.451   -26.593884    1.5974625    180.77189            0 
   68000        67998    99.816167     3.548087      4669838 0.0057047003    156.30575    1643.6734   -26.184215    1.5645642     180.9254            0 
   68500        68498    99.687992    3.6432266    4892831.1 0.0054447058    158.50169    1643.9594   -24.128201    1.6119872     181.0179            0 
   69000        68998    99.952927    3.0461782    5120783.4  0.005202334    160.25004    1649.6555   -22.004594    1.6057621    180.64887            0 
   69500        69498    99.896557    2.9353337    5355444.7 0.0049743817     160.1802    1648.7457   -22.502544    1.5968525     181.0859            0 
   70000        69998    99.964901    2.5419996    5596568.2 0.0047600645    159.18096    1648.7649   -23.215077    1.6551511    180.74088            0 
   70500        70498    99.925016    2.5195604      5844187 0.0045583801    159.64634    1648.6359   -22.801895    1.6445832    180.80365            0 
   71000        70998    99.880186    2.4868246    6095196.5 0.0043706591    162.84264    1651.1642   -20.341144    1.6752925     181.5085            0 
   71500        71498    99.918167    2.4670724    6351672.2 0.0041941752    160.50963    1649.3972   -22.171217    1.7003274    180.98052            0 
   72000        71998    99.844739    2.3636537    6614852.6 0.0040273045    165.93982    1653.7332    -17.61619    1.7575088     181.7985            0 
   72500        72498    99.945933    2.1274817      6879907 0.0038721491    165.33632    1654.6376   -17.952717    1.7321808    181.55685            0 
   73000        72998    99.902983    2.0756667    7151154.2 0.0037252764     167.8868    1656.5481   -15.250357    1.7949401    181.34222            0 
   73500        73498    99.877827     1.989036    7423117.9  0.003588792    168.11602    1656.4024    -15.66112    1.7678382     182.0093            0 
   74000        73998    99.897961    1.8688574      7699314 0.0034600519    167.22256     1655.809   -16.120753    1.8364733    181.50684            0 
   74500        74498    99.755838    1.8451082    7979045.5 0.0033387485    172.00439    1658.4731   -12.476395    1.9100793    182.57071            0 
   75000        74998    99.926213    1.4877802    8254331.2 0.0032273997    172.80433    1661.8118   -11.664002    1.9035398    182.56479            0 
   75500        75498    99.950421     1.455076    8527410.3 0.0031240465    171.14536    1660.5135   -12.527067    1.9199067    181.75252            0 
   76000        75998    99.944845    1.3507586    8804067.7  0.003025877    171.25014    1660.5352    -13.08875    1.9306238    182.40827            0 
   76500        76498    100.02897    1.3265097    9069953.9 0.0029371732    170.78828    1661.3269   -13.714065    1.9178605    182.58449            0 
   77000        76998    99.968272    1.4002187    9341876.4 0.0028516783    169.10589    1658.7401   -15.722131    1.9143206     182.9137            0 
   77500        77498    100.02403    1.3646961    9608281.3  0.002772611    172.22466    1662.6897   -12.218703    1.9587594    182.48461            0 
   78000        77998    99.895321    1.4463832    9868870.4 0.0026993997    174.97479    1663.5219   -9.8896154    1.9476716    182.91673            0 
   78500        78498    99.973355    1.3646736     10119751 0.0026324783      174.344    1664.0539   -10.304315    1.9013918    182.74692            0 
   79000        78998    99.938109    1.3762174     10364191 0.0025703912      175.094    1664.2787   -9.6575625    1.8832355    182.86832            0 
   79500        79498     100.0066    1.3461033     10610355 0.0025107574    173.94999    1664.1552    -10.49329    1.9047705    182.53851            0 
   80000        79998    99.977619    1.2798929     10858231 0.0024534407    172.96263    1662.7361   -12.571851     1.956324    183.57815            0 
   80500        80498    99.992553    1.2751783     11088310 0.0024025325    171.73585    1661.7318   -13.551987    1.9721537    183.31569            0 
   81000        80998    100.01191    1.2530456     11317689 0.0023538396    173.17571    1663.4602    -11.98829    1.9415738    183.22243            0 
   81500        81498    99.954445    1.2096635     11535456 0.0023094037    172.48422    1661.9123   -12.729887    2.0110224    183.20309            0 
   82000        81998    99.932003    1.0879341     11752379 0.0022667773    174.79726     1663.891   -11.155756    2.0617711    183.89124            0 
   82500        82498     100.0244     1.010653     11940701  0.002231027    174.46013    1664.9307   -11.037528    2.0485073    183.44915            0 
   83000        82998    99.960286   0.95036927     12135724 0.0021951739    174.08269    1663.5979    -11.17086    2.0949485     183.1586            0 
   83500        83498    99.967584   0.88652794     12344946 0.0021579703    176.79085    1666.4148   -8.5526958    2.1269785    183.21656            0 
   84000        83998    100.00065   0.94393854     12528750 0.0021263115    177.14487    1667.2615   -8.5225767    2.0291369     183.6383            0 
   84500        84498    99.966597    1.0300668     12713214 0.0020954596    178.52736    1668.1366   -7.5549202    2.0328764    184.04941            0 
   85000        84998    99.997402    1.1470285     12891443  0.002066489    178.49718    1668.5654   -6.9497551    2.0361553    183.41078            0 
   85500        85498    99.991484    1.1800506     13050997 0.0020412253    178.47344    1668.4535    -7.421384    2.0292905    183.86553            0 
   86000        85998     100.0315    1.1814796     13192618  0.002019313    177.50387    1668.0802   -8.0840128    2.0220166    183.56586            0 
   86500        86498    99.992338    1.1478776     13328679 0.0019986997     175.9469    1665.9397   -9.7921084    2.0147303    183.72428            0 
   87000        86998      99.9802    1.0151778     13454608 0.0019799928    178.44312     1668.255   -7.3502632    1.9991134    183.79427            0 
   87500        87498    99.987093   0.93524948     13553739 0.0019655112    178.82247    1668.7371   -7.2317565    2.0445392    184.00968            0 
   88000        87998    99.980575   0.98694077     13631340 0.0019543218    175.55319    1665.3707   -10.451102    2.1104326    183.89386            0 
   88500        88498    100.00359   0.94409436     13715406 0.0019423433    175.67013    1665.8305   -10.567752    2.0764049    184.16148            0 
   89000        88998    99.917309   0.96484932     13799506 0.0019305057    176.20725     1665.082    -10.02199    2.1306224    184.09862            0 
   89500        89498    100.01664   0.89780671     13877392  0.001919671    177.22709     1667.582   -9.0772885     2.167693    184.13669            0 
   90000        89998    100.06011   0.90495388     13933327 0.0019119644    176.27871    1667.2814   -9.4345918    2.1616787    183.55162            0 
   90500        90498    99.999247   0.91723104     14002896 0.0019024654    177.82326     1667.919   -8.7934065    2.0945228    184.52215            0 
   91000        90998    99.974011     0.957281     14075866  0.001892603     178.9364    1668.6561   -7.6717835    2.1027917    184.50539            0 
   91500        91498    99.992805   0.99272234     14160360 0.0018813099    179.82794    1669.8277   -6.5574186    2.0595498    184.32581            0 
   92000        91998     99.96584    1.0839728     14231414  0.001871917    181.45501    1671.0529   -4.7962571    2.0410238    184.21024            0 
   92500        92498    100.05507    1.1134849     14280354 0.0018655018     178.4287    1669.3563   -7.9127583    2.0298121    184.31165            0 
   93000        92998     99.86987    1.1877504     14342038 0.0018574784     178.7969    1666.9648   -7.8752554    2.1035215    184.56863            0 
   93500        93498    100.00014    1.0640649     14422470 0.0018471195    176.92001     1667.029   -9.4128383    2.0250863    184.30776            0 
   94000        93998    100.02399   0.99912635     14488737 0.0018386714    176.72281    1667.1872   -9.9168897    2.0148538    184.62485            0 
   94500        94498    99.976164    0.9772734     14558536 0.0018298561    178.72298    1668.4747   -8.2428857    2.0881479    184.87772            0 
   95000        94998    99.987443       1.0221     14637456 0.0018199902    179.80126    1669.7211    -7.126938    2.0718323    184.85637            0 
   95500        95498    99.976256   0.97229423     14745986 0.0018065951    181.24692    1671.0001   -5.6696271    2.0628749    184.85367            0 
   96000        95998    99.962833    1.0101866     14839287 0.0017952363    180.31058    1669.8637   -6.2976176    2.0155154    184.59268            0 
   96500        96498    100.04121    1.0139203     14919206 0.0017856195    178.34875    1669.0697   -7.6667572    2.0560166    183.95949            0 
   97000        96998    99.888092    1.0474227     15019062 0.0017737476    179.06218    1667.5016   -7.2760965    2.0335609    184.30472            0 
   97500        97498    100.02875    1.0361882     15109435 0.0017631384    178.64066    1669.1761   -8.3144386    1.9880825    184.96702            0 
   98000        97998     99.98569    1.0606823     15196476 0.0017530397    179.19322    1669.0869   -8.3659659    2.0545621    185.50462            0 
   98500        98498    99.865678    1.1000967     15259045 0.0017458514    179.96279    1668.0682   -7.8071605    2.0711393    185.69881            0 
   99000        98998    99.908462    1.0943363     15320683 0.0017388275    181.03018    1669.7731   -5.6608249    1.9942592    184.69674            0 
   99500        99498    100.03526    1.0197794     15370052 0.0017332424     180.7811    1671.4134   -5.6822971    1.9953072    184.46809            0 
  100000        99998    99.940835    1.0735238     15398006 0.0017300958    180.76867     1669.994   -5.8573684    1.9726174    184.65342            0 
  100500       100498    99.952377    1.0950845     15450833 0.0017241806    181.13759    1670.5349   -5.7856781    1.9223541    185.00092            0 
  101000       100998    99.943644    1.1404366     15497154  0.001719027    179.49254    1668.7597   -7.8986031    1.9648114    185.42634            0 
  101500       101498     100.0165    1.1956986     15536814 0.0017146389    179.87648    1670.2292   -7.5283914    1.9489193    185.45595            0 
  102000       101998     99.96981    1.1810553     15584719 0.0017093684    178.48344    1668.1405   -8.4044811    1.9572859    184.93064            0 
  102500       102498    100.02979    1.1019963     15625176 0.0017049424    180.63616     1671.187   -6.2749931    2.0014012    184.90976            0 
  103000       102998    100.05438   0.98194531     15650083  0.001702229    180.52176     1671.439   -6.5322853    2.0826843    184.97136            0 
  103500       103498    100.04424   0.81348108     15670591 0.0017000013    178.92589     1669.692   -8.2558088    2.1172039    185.06449            0 
  104000       103998    100.05218   0.79432447     15701548 0.0016966497    177.10656     1667.991   -9.7483085    2.1647454    184.69012            0 
  104500       104498    99.994589   0.86629846     15758626 0.0016905044    179.57288    1669.5992   -7.7420524    2.1155368     185.1994            0 
  105000       104998    100.03789   0.83615304     15830756 0.0016828019    179.31213    1669.9837   -7.9541424    2.1545651    185.11171            0 
  105500       105498    99.876373   0.97575102     15921802 0.0016731791    180.85674    1669.1215   -6.9993923    2.1780457    185.67809            0 
  106000       105998    100.03318   0.98084068     16012249 0.0016637279    181.08253    1671.6838   -5.9260457    2.0542719     184.9543            0 
  106500       106498    100.00365    1.0760236     16087601 0.0016559353    179.63765     1669.799   -7.5932544    2.0375446    185.19336            0 
  107000       106998    100.04175    1.0953139     16143407 0.0016502109    178.47045    1669.1995   -9.1603951    2.0225417     185.6083            0 
  107500       107498    99.986969    1.1522815     16180824 0.0016463949    178.24014    1668.1529   -9.4630142    1.9822686    185.72089            0 
  108000       107998     99.93273    1.1850066     16203998 0.0016440403    181.93775    1671.0423   -6.2673468     2.072118    186.13298            0 
  108500       108498    100.04967    1.0501439     16234034 0.0016409986    179.56231    1670.4094   -7.7232946    2.0407621    185.24484            0 
  109000       108998    100.00062   0.99320611     16294927 0.0016348662    180.90389      1671.02   -6.9002619    2.1111114    185.69304            0 
  109500       109498    99.931249   0.99507909     16385633 0.0016258161    181.84821    1670.9307   -6.1940225    2.0329342     186.0093            0 
  110000       109998     99.97459   0.95132967     16501977 0.0016143536    181.97171       1671.7   -6.2673964    2.1295609    186.10954            0 
  110500       110498    99.943681   0.90513099     16623381 0.0016025636    181.94123     1671.209    -6.126833     2.230569     185.8375            0 
  111000       110998    99.848832   0.93498718     16738814 0.0015915122    183.47757     1671.332   -4.7869042    2.1343614    186.13012            0 
  111500       111498    99.962169   0.91061204     16833661  0.001582545    181.64878     1671.192   -6.8747803    2.1164188    186.40714            0 
  112000       111998    99.958097   0.94282984     16917694 0.0015746842    180.86048     1670.343   -7.4238476    2.2075997    186.07672            0 
  112500       112498    99.956247   0.96959859     16979839  0.001568921    181.55933    1671.0143   -6.6977283    2.1467783    186.11028            0 
  113000       112998    99.948554   0.98979683     17007484 0.0015663708     181.8163    1671.1566   -6.1974543    2.1371747    185.87658            0 
  113500       113498    100.05946   0.92412333     17025782 0.0015646874    181.76635    1672.7593   -5.9997102    2.0964697    185.66959            0 
  114000       113998    99.926893   0.94862442     17038635 0.0015635071    182.32791    1671.3455   -6.3326774    2.1282761    186.53231            0 
  114500       114498    99.902172   0.96443834     17068976 0.0015607278    183.95071    1672.5999   -4.9257874    2.2116915    186.66481            0 
  115000       114998    100.03892    0.9922516     17105189 0.0015574237    180.62013     1671.307   -7.4415265    2.0425143    186.01914            0 
  115500       115498    99.994673   0.97977742     17170255 0.0015515218    181.62699    1671.6546   -5.9882787    1.9529304    185.66234            0 
  116000       115998    100.06487    1.0441284     17196707 0.0015491353    178.40389    1669.4775   -9.2185917    2.0247311    185.59775            0 
  116500       116498    100.00122    1.1236012     17238546 0.0015453755    178.04674    1668.1718   -10.380517    1.9934494    186.43381            0 
  117000       116998     100.0112    1.2057077     17314074 0.0015386341    177.01791    1667.2917   -11.085175    1.9504236    186.15266            0 
  117500       117498    100.01513    1.1824609     17378313 0.0015329466    177.56906    1667.9015   -10.724725    1.9437365    186.35005            0 
  118000       117998    99.960652    1.1674852     17407180 0.0015304045    179.38236     1668.903   -9.1654461    2.0596359    186.48817            0 
  118500       118498    100.08084    1.0797805     17446206 0.0015269811    178.26273    1669.5742   -9.8355953    2.0342578    186.06406            0 
  119000       118998    99.887646    1.0403457     17486968 0.0015234217    180.94954    1669.3823   -7.6733765    1.9878734    186.63504            0 
  119500       119498    99.946146   0.92853497     17535306 0.0015192222    179.35749    1668.6619     -9.33563    2.0613385    186.63178            0 
  120000       119998    99.945145   0.82374527     17596866 0.0015139074    180.02905    1669.3186   -8.9200344    2.1771003    186.77198            0 
  120500       120498    99.939013   0.78576754     17683029 0.0015065307     181.9377    1671.1359   -7.3408674    2.1814125    187.09716            0 
  121000       120998    100.05494   0.77556781     17771409 0.0014990385    179.44186    1670.3674   -9.3007206    2.1115146    186.63107            0 
  121500       121498    99.914481   0.92220553     17865424   0.00149115    180.22024    1669.0529     -8.36114    2.0501729    186.53121            0 
  122000       121998    99.989632   0.99833491     17945366 0.0014845072    181.14166    1671.0941   -8.0052963    2.0246532     187.1223            0 
  122500       122498    99.837611    1.1586735     17994195 0.0014804789    182.34291    1670.0301   -7.1501689     2.177773    187.31531            0 
  123000       122998    100.01013    1.1439546     18041564 0.0014765918    179.84957    1670.1075   -9.1708258    1.9879512    187.03244            0 
  123500       123498    99.876315    1.2531718     18087502 0.0014728416    179.67594    1667.9398   -9.4573741    1.9029383    187.23037            0 
  124000       123998    100.05861    1.1734565     18129700 0.0014694135    178.99119    1669.9715   -9.0798285    1.8358905    186.23513            0 
  124500       124498    100.04042    1.1708261     18137155 0.0014688096      179.569    1670.2783   -9.0084457     1.905553    186.67189            0 
  125000       124998    99.985414    1.1322161     18163369 0.0014666897    181.59414    1671.4837   -7.7032607    2.0276035     187.2698            0 
  125500       125498    100.00727    1.0053409     18183829 0.0014650394    181.66398    1671.8793   -7.8073282    2.0465202    187.42479            0 
  126000       125998    100.01569   0.90402111     18226179 0.0014616353    181.78332    1672.1241   -7.3872472    2.0075186    187.16305            0 
  126500       126498    100.06265   0.80302353     18256813 0.0014591827    180.62627    1671.6667   -8.1766098    2.1348806      186.668            0 
  127000       126998    100.05531   0.84704807     18293015  0.001456295    180.74933    1671.6805   -8.3581558    2.1194701    186.98802            0 
  127500       127498     99.94711   0.90010706     18358696 0.0014510848    182.60651    1671.9253   -7.6317185    2.1728143    188.06541            0 
  128000       127998    99.929617   0.90526579     18448399 0.0014440291    183.87998    1672.9381   -5.7652795    2.2206088    187.42465            0 
  128500       128498    100.05544   0.90202926     18502983 0.0014397692    182.33421    1673.2672   -6.3358716     2.122234    186.54785            0 
  129000       128998     100.0726   0.95775359     18531325 0.0014375673    181.97405    1673.1628   -6.6449382    2.0742259    186.54476            0 
  129500       129498    100.03993     1.084674     18548984 0.0014361987     183.4164    1674.1183   -6.4700386    2.0621187    187.82432            0 
  130000       129998    99.987665    1.1203536     18588104 0.0014331761     182.7786    1672.7017   -6.8594667    2.0656701    187.57239            0 
  130500       130498    100.03659    1.1660158     18633148 0.0014297115     181.7551    1672.4072   -7.1020641    2.0851153    186.77204            0 
  131000       130998    100.00488    1.1211277     18676073 0.0014264254    183.75546    1673.9351   -5.2160191    1.9723222    186.99915            0 
  131500       131498    99.951497    1.0904188     18675319 0.0014264831     181.5198     1670.904   -8.1024574    2.0868007    187.53546            0 
  132000       131998    100.07036   0.98196593     18690173 0.0014253493    180.29039    1671.4458   -8.7137333    2.0817299    186.92239            0 
  132500       132498    99.901884    0.9701042     18695145 0.0014249703     181.2445    1669.8894   -8.3765748    2.0968398    187.52423            0 
  133000       132998    99.914734   0.95524812     18724882 0.0014227073    183.83987    1672.6763   -5.8412271     2.197256    187.48384            0 
  133500       133498    100.10271   0.94545381     18734453 0.0014219805    179.50723    1671.1447   -9.5600049    2.0338102    187.03342            0 
  134000       133998    99.994562   0.98385154     18780279 0.0014185107    182.37008     1672.396   -7.4140034    2.0583858     187.7257            0 
  134500       134498    100.00318    1.0109441     18832603 0.0014145695    182.75204    1672.9064   -6.8322256    2.2445575    187.33971            0 
  135000       134998    100.00532   0.97351754     18913059  0.001408552    182.73531    1672.9216   -6.8162906    2.1139682    187.43763            0 
  135500       135498    99.966748   0.99054029     18968778 0.0014044145    182.90661    1672.5181   -6.9678106    2.1295205     187.7449            0 
  136000       135998    99.863273   0.98478293     19012530 0.0014011826    184.25456    1672.3241   -6.1939911    2.1332619    188.31529            0 
  136500       136498    99.969561   0.91986641     19058447 0.0013978068    184.44272    1674.0961   -5.9586997    2.1074712    188.29395            0 
  137000       136998    100.06411   0.87836198     19089325 0.0013955458    182.43078     1673.493   -7.0246708     2.098986    187.35647            0 
  137500       137498    99.977359   0.91799454     19132302 0.0013924109    183.40154    1673.1711   -6.1422526    2.1986389    187.34515            0 
  138000       137998    99.993469   0.99281412     19189772 0.0013882409    185.06877    1675.0784   -5.0632126     2.176906    187.95508            0 
  138500       138498    99.996637    1.0095711     19241381 0.0013845173    184.68055    1674.7374   -5.6434718    2.0617108    188.26231            0 
  139000       138998    99.909671    1.1018928     19293108 0.0013808053    183.66787    1672.4288   -6.5418748    2.0771615    188.13258            0 
  139500       139498    100.01175    1.0463556     19338995  0.001377529    184.42597     1674.708   -5.9080627    2.0286769    188.30535            0 
  140000       139998    99.992745    1.0725986     19345651  0.001377055    183.26126    1673.2601    -6.865165    1.9973642    188.12906            0 
  140500       140498    100.05299    1.0402069     19361844 0.0013759033    183.61977    1674.5164   -5.9323757    1.9494831    187.60266            0 
  141000       140998    99.993281    1.0645635     19367454 0.0013755048    185.30057    1675.3074   -4.8331072    2.0015614    188.13212            0 
  141500       141498    99.941541    1.1161309     19370003 0.0013753238      185.163    1674.3988   -5.4311359    2.0584132    188.53572            0 
  142000       141998    99.995406    1.0850429     19406102 0.0013727654    185.53633    1675.5748   -4.6073017     2.105569    188.03807            0 
  142500       142498    100.05853    1.0461857     19440853 0.0013703116    183.97113    1674.9502    -6.694858    2.0439241    188.62207            0 
  143000       142998    100.02762    1.0193795     19500382 0.0013661284    184.61151      1675.13    -5.650987    2.0644176    188.19808            0 
  143500       143498    100.09148   0.92392434     19554961 0.0013623155    183.32386     1674.794   -6.9690817    2.0945193    188.19842            0 
  144000       143998    99.994721   0.88714571     19602205 0.0013590321    183.47835    1673.5066   -7.1023532    2.2146829    188.36602            0 
  144500       144498    100.02034   0.87822342     19633171 0.0013568886    182.06608    1672.4761   -8.6604281    2.1967155    188.52979            0 
  145000       144998    100.01702   0.83209382     19699488 0.0013523207    183.70911    1674.0697   -6.7136345    2.2034604    188.21928            0 
  145500       145498    99.967455   0.92083962     19747199 0.0013490534     186.0888    1675.7108   -5.3369132    2.1639737    189.26174            0 
  146000       145998     100.0207   0.97295873     19791693 0.0013460206    185.62053    1676.0359   -4.7169107    2.0729466     188.2645            0 
  146500       146498    99.908456    1.0579801     19816015 0.0013443685    185.52323    1674.2661    -5.331222    2.0462524     188.8082            0 
  147000       146998    100.05808    1.1081894     19833541 0.0013431805    185.80219    1676.7747   -4.9488527    2.0190899    188.73195            0 
  147500       147498    100.08274     1.088156     19855255 0.0013417116    184.85927    1676.1991   -5.0456839    2.0892592     187.8157            0 
  148000       147998    99.971572    1.1845474     19874838 0.0013403896    185.09469     1674.778   -5.9657299    1.9046335    189.15578            0 
  148500       148498    99.957053    1.2391905     19911837 0.0013378989     183.9865    1673.4535   -7.1029864    1.9738064    189.11568            0 
  149000       148998    100.00555    1.1536065     20000023 0.0013319998    184.78409    1674.9738   -5.6897934    2.0079532    188.46593            0 
  149500       149498    100.06153     1.128553     20075987 0.0013269597    184.58539    1675.6092   -6.0306668    2.0405839    188.57547            0 
  150000       149998    99.971867    1.1279408     20134798 0.0013230839     185.5889    1675.2766   -4.7468686    1.9409914    188.39478            0 
  150500       150498    100.01407     1.051753     20197358 0.0013189857    185.96914    1676.2857   -5.2325963    1.9591738    189.24256            0 
  151000       150998    99.995782   0.97030966     20234996 0.0013165323    184.09037    1674.1345   -7.0767889    2.0569528    189.11021            0 
  151500       151498    99.942783   0.94826342     20274386 0.0013139745    185.30618    1674.5605   -6.2951271    2.1976228    189.40368            0 
  152000       151998    100.00761   0.84650285     20351924 0.0013089684    184.89462    1675.1149   -6.1344949    2.1712102     188.8579            0 
  152500       152498      100.024   0.85400987     20402427 0.0013057283    186.04088    1676.5054   -4.7337661    2.2204929    188.55415            0 
  153000       152998    100.01957   0.84736715     20437766 0.0013034706    185.96926    1676.3679   -5.3470087    2.2384455    189.07783            0 
  153500       153498    100.01828   0.90158586     20466102 0.0013016658    185.57026    1675.9496   -5.8268583    2.1948215     189.2023            0 
  154000       153998    99.997664   0.95256716     20498325 0.0012996197    185.91389     1675.986   -5.6621708    2.1850628      189.391            0 
  154500       154498    99.971257    1.0051537     20529099 0.0012976714    184.45591    1674.1345    -7.463432    2.1565991    189.76274            0 
  155000       154998     99.97797    1.0209942     20564213 0.0012954557      185.422    1675.2007   -6.0111337    2.1300787    189.30306            0 
  155500       155498     100.0469   0.99175767     20609340  0.001292619    185.28242    1676.0882   -5.8934083    2.1212992    189.05453            0 
  156000       155998    100.00696   0.95064905     20676437 0.0012884244    186.91596    1677.1265   -4.3993441    2.1666612    189.14864            0 
  156500       156498    99.982058    1.0146208     20702265  0.001286817    185.54522    1675.3848   -5.4567163    2.1459391    188.85599            0 
  157000       156998    100.02102    1.0070297     20762105 0.0012831081    185.90198    1676.3222   -5.6316509    2.0531029    189.48052            0 
  157500       157498    100.01282    1.0381409     20798666 0.0012808526    184.21444    1674.5124   -7.5871052     2.098282    189.70327            0 
  158000       157998    99.910792    1.1098665     20838964 0.0012783757    185.23773    1674.0154   -6.5076856    2.0757165    189.66969            0 
  158500       158498    100.00578    1.1126071     20875669  0.001276128    184.16024    1674.3533   -6.8898396    1.9087507    189.14133            0 
  159000       158998    100.04209    1.0777463     20882588 0.0012757052    184.73763    1675.4717   -6.5079514    2.1942848     189.0513            0 
  159500       159498    100.01024    1.0565716     20872252 0.0012763369    184.66898    1674.9285   -6.8588278     2.106693    189.42112            0 
  160000       159998     100.0422   0.96911026     20858634 0.0012771702    183.20455    1673.9403   -8.2518872    2.1015249    189.35492            0 
  160500       160498    100.07876   0.89596225     20853940 0.0012774577    183.87287    1675.1535   -6.9454461     2.061565    188.75675            0 
  161000       160998    100.02192   0.88617767     20859193  0.001277136    184.39439    1674.8279   -6.5928893    2.1281359    188.85914            0 
  161500       161498    99.868925   0.93273601     20869097 0.0012765299    188.07303    1676.2268   -4.1986732    2.1992389    190.07246            0 
  162000       161998    99.983089   0.95412318     20913086 0.0012738448    187.03168    1676.8866   -4.3018634    2.1496486     189.1839            0 
  162500       162498    99.909742    1.0420023     20932207 0.0012726812    187.13697     1675.899   -5.0261758    2.2305044    189.93264            0 
  163000       162998    99.901981    1.1067606     20970714 0.0012703443    187.60371    1676.2501   -4.9001371    2.0176512     190.4862            0 
  163500       163498    100.03388     1.136265     21013171 0.0012677775    186.56032    1677.1721    -4.705684    2.0074132     189.2586            0 
  164000       163998    100.05829    1.1287306     21036972 0.0012663432    184.92777    1675.9033   -6.1237888    2.0592366    188.99233            0 
  164500       164498    99.960475     1.131253     21055596  0.001265223    186.02831    1675.5463   -5.9681185    2.0295699    189.96686            0 
  165000       164998    100.02507    1.0614508     21063070 0.0012647741    185.23945      1675.72   -5.9466827    2.0682452    189.11789            0 
  165500       165498    99.907525    1.0518209     21054395 0.0012652952    187.67697    1676.4059   -4.6572233    2.0503119    190.28388            0 
  166000       165998    100.05364   0.98013781     21049673 0.0012655791    185.93863    1676.8449   -5.7056217    2.0392913    189.60496            0 
  166500       166498    99.968316   0.93641502     21076948 0.0012639413    186.85766    1676.4925   -4.6559237    2.2882703    189.22532            0 
  167000       166998    99.939361   0.88915331     21151208 0.0012595037    186.51883    1675.7222   -5.3658686    2.2056514    189.67904            0 
  167500       167498    100.04596    0.8295712     21213855 0.0012557843    185.76674    1676.5585   -5.7798302    2.2417743     189.3048            0 
  168000       167998    99.906918   0.88261504     21254914 0.0012533585    186.61535    1675.3353   -5.4280742    2.2641295     189.7793            0 
  168500       168498     100.0117   0.86616981     21314136 0.0012498759    186.51306    1676.7944   -5.0444496    2.2368551    189.32065            0 
  169000       168998    100.03282   0.91709453     21341550 0.0012482704    186.35749    1676.9535    -4.977436    2.1984585    189.13646            0 
  169500       169498    99.992635   0.96614834     21356906 0.0012473729    187.04177     1677.039   -4.8520944    2.1924557     189.7014            0 
  170000       169998    99.904613    1.0157789     21357226 0.0012473542    187.01582    1675.7014   -5.5836111    2.1782147    190.42122            0 
  170500       170498      100.012   0.98761035     21355658 0.0012474458    185.62474    1675.9105   -6.0457556    2.1392606    189.53124            0 
  171000       170998    99.941482   0.97648041     21363016 0.0012470161    185.61059    1674.8456   -5.6885478    2.1141907    189.18494            0 
  171500       171498    99.976777   0.99263521     21372889 0.0012464401    187.74564    1677.5065   -4.5574799    2.1003695    190.20276            0 
  172000       171998     100.0112    1.0798803     21351950 0.0012476624    187.26783    1677.5416   -5.0426371    2.1025464    190.20792            0 
  172500       172498    99.986276    1.1448927     21338327  0.001248459    186.98321    1676.8857   -5.0366726    2.1194895     189.9004            0 
  173000       172998    99.989873    1.1278764     21335746   0.00124861    188.09489    1678.0509   -4.0357915    2.1522644    189.97842            0 
  173500       173498    99.996864    1.0680548     21331795 0.0012488412    187.06811    1677.1283   -5.0801463    2.1839926    189.96426            0 
  174000       173998     99.95673   0.95219326     21359237 0.0012472368    188.00555    1677.4677    -4.379664    2.2054874    190.17973            0 
  174500       174498    100.10125   0.80808675     21383282 0.0012458343     184.8085    1676.4241   -6.9716145    2.2674785    189.51263            0 
  175000       174998    99.988297   0.74722024     21430472 0.0012430909     186.8032    1676.7357   -5.3289466    2.3766767    189.75547            0 
  175500       175498    100.02952   0.73367752     21482979 0.0012400527    186.05107    1676.5979   -5.6090909    2.2608384    189.39932            0 
  176000       175998    99.967956   0.81497763     21554157 0.0012359577    186.46042    1676.0899   -5.9886143    2.2441771    190.20486            0 
  176500       176498    99.884781   0.89143622     21617365 0.0012323438    186.44143    1674.8315   -6.3839078    2.2494435    190.57589            0 
  177000       176998    100.03595   0.93948076     21650342 0.0012304668    186.52666    1677.1693   -5.6815032    2.2313833    189.97678            0 
  177500       177498    99.965416    1.0614341     21666404 0.0012295546    187.24009    1676.8317   -4.4485139    2.2205056    189.46809            0 
  178000       177998    100.01331    1.1355116     21686220 0.0012284311    187.32348    1677.6288   -4.8906937    1.9697779     190.2444            0 
  178500       178498    99.997661    1.1908871     21691994 0.0012281041    187.83578    1677.9079   -4.5522404    2.0116087    190.37641            0 
  179000       178998    99.978241    1.1580426     21693060 0.0012280437    187.52294    1677.3057   -4.9064332     2.092672    190.33671            0 
  179500       179498    99.962996    1.0836398     21691393 0.0012281381    187.36092    1676.9165   -5.2913204    2.0006921    190.65154            0 
  180000       179998    99.998525   0.99123859     21700715 0.0012276105    187.47156    1677.5565     -4.75697    2.1265849    190.10195            0 
  180500       180498    100.02167   0.94329761     21727445 0.0012261003    188.27315    1678.7029   -4.1248444    2.1739578    190.22404            0 
  181000       180998    100.01163   0.90999707     21750915 0.0012247773    187.94864    1678.2289   -4.5295797    2.1409085    190.33731            0 
  181500       181498    99.983305   0.88343599     21794383 0.0012223345      188.086    1677.9442   -4.5611403     2.233187    190.41396            0 
  182000       181998    99.937204   0.89896052     21848640 0.0012192991    188.68711    1677.8583   -4.6814318    2.1306182    191.23792            0 
  182500       182498    100.01563   0.92034361     21876498 0.0012177464    188.77509     1679.115   -3.5883179    2.1315764    190.23183            0 
  183000       182998    100.05768   0.97037358     21862491 0.0012185266    187.39251     1678.359   -4.9885791    2.1390684    190.24202            0 
  183500       183498    99.994357    1.0783893     21842013  0.001219669    185.76653    1675.7894   -6.9479375    2.0850026    190.62946            0 
  184000       183998    99.987382     1.087843     21874869  0.001217837    187.47288    1677.3918   -4.8629228    2.0552835    190.28052            0 
  184500       184498    99.835376    1.1943161     21920797 0.0012152855     191.2912    1678.9451   -1.8274784    2.0808265    191.03785            0 
  185000       184998    100.03371    1.1359219     21979489 0.0012120403    188.51244    1679.1217   -3.8073766     2.050312     190.2695            0 
  185500       185498    100.09041    1.0823755     22024780 0.0012095479    186.78522    1678.2393   -4.7688213    2.0316258    189.52241            0 
  186000       185998    99.931362    1.0553485     22071055 0.0012070119    189.50746    1678.5916   -3.3111489    2.0929654    190.72564            0 
  186500       186498    99.967543    1.0673271     22092298 0.0012058513    188.64977    1678.2731   -4.4525596    2.0326547    191.06968            0 
  187000       186998    99.936041     1.038421     22115642 0.0012045785    188.66567    1677.8196   -4.4856165    2.0523469    191.09894            0 
  187500       187498    100.08573    1.0100577     22109800 0.0012048968    187.00351    1678.3879   -4.7673104    2.1032642    189.66755            0 
  188000       187998    100.02753     1.045161     22099187 0.0012054754    187.32644    1677.8437   -4.6248415    2.1065417    189.84474            0 
  188500       188498    100.00367    1.0294548     22090342  0.001205958    188.18444    1678.3461   -4.5018911    2.2043243      190.482            0 
  189000       188998    99.979699    1.0109419     22101425 0.0012053533    188.41891    1678.2234   -4.4871951    2.2064379    190.69967            0 
  189500       189498    99.902317   0.95505691     22167186 0.0012017775    190.35022    1679.0016   -2.8031179    2.1941574    190.95918            0 
  190000       189998    99.963923   0.92589909     22210449 0.0011994366    188.41179    1677.9812   -4.5244066    2.2126854    190.72351            0 
  190500       190498    99.943525   0.89048306     22267506 0.0011963633    189.66565    1678.9311   -3.3238546    2.1416913    190.84781            0 
  191000       190998    100.03098   0.98068063     22280460 0.0011956677    187.46571    1678.0343   -5.0440552    2.1461876    190.36358            0 
  191500       191498    100.01494    1.0116334     22310948 0.0011940338     188.4559    1678.7855    -4.412639    2.2562668    190.61227            0 
  192000       191998    99.990057    1.0642274     22335360 0.0011927287     188.5234    1678.4822   -4.3998461     2.064017    190.85922            0 
  192500       192498    100.04522    1.0771846     22361172  0.001191352    185.97829     1676.759   -6.6257118    2.0183783    190.58562            0 
  193000       192998    99.961159    1.1113601     22378864 0.0011904101    187.88961    1677.4178   -5.8724231    2.1668434    191.59519            0 
  193500       193498     100.0288    1.0507124     22356999 0.0011915743     187.2864    1677.8226   -5.6705884    2.0399496    190.91704            0 
  194000       193998    100.00145    1.0409211     22335060 0.0011927448    187.07266    1677.2012   -4.9884096    2.1196617    189.94141            0 
  194500       194498    99.964272    1.0040248     22357439 0.0011915509    189.50631    1679.0809   -3.6642042    2.1438659    191.02665            0 
  195000       194998     100.0078   0.90760534     22400137 0.0011892796      188.912    1679.1351   -4.1317886     2.183991     190.8598            0 
  195500       195498    99.965779   0.89317503     22443827 0.0011869645    189.45344    1679.0504   -3.5429021    2.2091424     190.7872            0 
  196000       195998    99.993844   0.92501661     22477521 0.0011851852    188.72583     1678.741   -4.2564211    2.2502222    190.73202            0 
  196500       196498    100.00925   0.89207027     22494331 0.0011842996    189.02947    1679.2742   -4.1372958    2.2757192    190.89104            0 
  197000       196998    100.02713   0.95558705     22499763 0.0011840136    187.57376     1678.085   -5.2211241    2.2533759    190.54151            0 
  197500       197498    99.969363   0.98281638     22536855 0.0011820649    188.58461     1678.235   -4.7359726    2.1102276    191.21036            0 
  198000       197998    99.920019    1.0179054     22585644 0.0011795115    188.51357    1677.4287   -5.0721152    2.0900026    191.49568            0 
  198500       198498    100.00629    1.0637865     22626340   0.00117739    186.72911    1676.9298   -6.2371648    2.0513102    190.91497            0 
  199000       198998    99.981575    1.0875791     22643549 0.0011764951    188.01442    1677.8468   -4.7561199    2.1785247    190.59202            0 
  199500       199498    99.966763     1.115613     22679681 0.0011746208    189.24415    1678.8558    -4.180201    2.2308094    191.19354            0 
  200000       199998     99.98541    1.1150123     22693901 0.0011738848    188.36887    1678.2584   -5.2789591    2.1075637    191.54026            0 
  200500       200498     99.99529    1.0430425     22700606 0.0011735381    186.98458    1677.0213   -6.3867195    2.1261169    191.24519            0 
  201000       200998    99.947702   0.97401173     22704928 0.0011733147      189.249    1678.5767   -4.4739958    2.1424444    191.58056            0 
  201500       201498    99.975559   0.91609559     22694722 0.0011738424    187.86261    1677.6054   -5.3836018    2.2656057    190.98061            0 
  202000       201998    100.01551   0.91143228     22676523 0.0011747844    188.27576    1678.6138   -5.0590278    2.2552056    191.07958            0 
  202500       202498     100.0156    0.9305446     22672693 0.0011749828    187.95571    1678.2952   -5.9360942    2.2201319    191.67168            0 
  203000       202998    100.08087   0.91831489     22669180  0.001175165    185.88015    1677.1922   -7.2648158    2.3026159    190.84235            0 
  203500       203498    100.02115   0.99708742     22681051 0.0011745499    186.94484    1677.3669   -6.2656944    2.1613143    191.04923            0 
  204000       203998    100.02166   0.97704736     22697131 0.0011737178    189.28905    1679.7188   -4.1532061    2.2356761    191.20658            0 
  204500       204498    99.872429    1.0408785     22695120 0.0011738218    189.22471    1677.4307   -4.8848135    2.3387516    191.77077            0 
  205000       204998    100.00659    1.0194628     22686491 0.0011742682    188.23884    1678.4441   -5.4467058    2.1678963    191.51765            0 
  205500       205498    100.09406   0.94004419     22662536 0.0011755095    186.33565    1677.8442   -6.6277307    2.1441994    190.81918            0 
  206000       205998    99.999448   0.91609712     22659688 0.0011756572    188.16409    1678.2628    -5.531512    2.2466651    191.44894            0 
  206500       206498    99.987837   0.93563271     22655623 0.0011758682    189.19702    1679.1227   -4.8652037    2.1000281     191.9622            0 
  207000       206998    99.998292    1.0034666     22650253  0.001176147    189.51668    1679.5982   -3.7586393     2.142726    191.13259            0 
  207500       207498     99.96999    1.1174731     22661667 0.0011755546     189.5847    1679.2445   -3.9805102    2.1742419    191.39097            0 
  208000       207998    100.08846    1.1683416     22669236 0.0011751621    187.15986     1678.585   -5.9008362     2.040816    191.01988            0 
  208500       208498    100.08503    1.1722497     22662096 0.0011755323     187.8884    1679.2623   -4.8376663    2.1025804    190.62349            0 
  209000       208998    99.978825    1.1886661     22633427 0.0011770213    189.76423    1679.5556   -4.5017976    2.0334053    192.23262            0 
  209500       209498     99.94587     1.172107     22614332 0.0011780152    190.97011    1680.2705   -3.3696033    2.1270597    192.21265            0 
  210000       209998    100.02651    1.0312555     22622727  0.001177578    188.93679    1679.4388    -4.548961    2.2493148    191.23643            0 
  210500       210498    100.01047   0.95327822     22644810 0.0011764297    189.94702      1680.21    -3.646119    2.2321791    191.36096            0 
  211000       210998    100.03214   0.87495873     22670500 0.0011750965    189.93686    1680.5228   -3.1928556    2.2914374    190.83828            0 
  211500       211498    99.977075   0.84165864     22678561 0.0011746788    188.84796    1678.6133   -5.5701191    2.2823167    192.13576            0 
  212000       211998    100.01928   0.79918595     22678751  0.001174669    188.98022    1679.3745   -4.8212201    2.2319723    191.56947            0 
  212500       212498    100.03505   0.87037942     22644420 0.0011764499    187.85016    1678.4794   -5.5070623    2.2460853    191.11113            0 
  213000       212998    99.956129    1.0608123     22649084 0.0011762076    188.32588    1677.7791   -5.3541559    2.1393611    191.54068            0 
  213500       213498    100.03742    1.1698162     22669589 0.0011751438    188.63487    1679.2994   -5.0768803     2.047054    191.66469            0 
  214000       213998    100.00914    1.3126083     22691903 0.0011739882    188.58978     1678.833   -5.3572133    2.0906799    191.85631            0 
  214500       214498    100.06194    1.3310399     22729399 0.0011720515    188.08942    1679.1193   -4.9494173    1.9602377     191.0786            0 
  215000       214998    99.990531      1.31738     22789879 0.0011689411    187.83141    1677.7973   -6.7125994    2.0487089     192.4953            0 
  215500       215498    100.00532    1.2357217     22860844 0.0011653124    187.28746    1677.4737   -5.9785588     2.110632    191.15539            0 
  216000       215998    100.05989    1.0914351     22939550 0.0011613142    186.80146    1677.8008   -6.4285496    2.0951798    191.13483            0 
  216500       216498    99.985044    0.9745606     23025322 0.0011569882    187.61439    1677.4985   -6.1809191    2.1716709    191.62364            0 
  217000       216998    100.06689   0.86495665     23081252 0.0011541846    188.30853    1679.4122   -5.0066674     2.265578    191.04962            0 
  217500       217498    100.00163   0.80824416     23098718 0.0011533119    190.55758    1680.6888   -3.6182268    2.3253204    191.85048            0 
  218000       217998    99.993974    0.8507965     23098527 0.0011533214    189.75759    1679.7747   -4.6707353    2.3023374    192.12599            0 
  218500       218498    100.01496   0.91238574     23077347 0.0011543799    189.26775    1679.5976   -5.2661071    2.2999146    192.23395            0 
  219000       218998    100.03869   0.99501462     23054767 0.0011555105    189.93186    1680.6153   -4.3975725    2.1310953    192.19834            0 
  219500       219498     100.0231    1.0473671     23049471  0.001155776    189.43036    1679.8816   -4.9555637    2.2071084    192.17882            0 
  220000       219998    100.01853    1.0745817     23041077 0.0011561971    188.64801     1679.031   -5.7456958    2.1449963    192.24871            0 
  220500       220498    99.996999    1.0680669     23064062 0.0011550449    189.22509    1679.2873   -4.8332669    2.0353665    192.02299            0 
  221000       220998    100.05328    1.1185508     23130161 0.0011517441    189.16787    1680.0688   -4.3517788    1.9405321    191.57912            0 
  221500       221498    99.957716    1.1760909     23193620 0.0011485928    189.74979    1679.2267   -4.9220939    2.0565198    192.61536            0 
  222000       221998    100.01153    1.1608495     23262406 0.0011451965    188.90073    1679.1794   -5.4723598    2.1584491    192.21464            0 
  222500       222498    100.05158    1.1040326     23330134 0.0011418719    188.07493    1678.9505    -5.787849    1.9940084    191.86877            0 
  223000       222998    100.03747    1.0423404     23375812 0.0011396407    189.00208    1679.6673   -4.5340641    2.0581539    191.47799            0 
  223500       223498    100.08425   0.99821671     23398928 0.0011385148    188.16211    1679.5245   -5.2775706    2.1887018    191.25098            0 
  224000       223998    99.997818    1.0104786     23428138 0.0011370953    189.49376    1679.5682   -4.5062722    2.2114304     191.7886            0 
  224500       224498    99.969087    1.0056598     23437888 0.0011366223    189.97891    1679.6252   -5.1618782    2.2778631    192.86293            0 
  225000       224998     99.92759    0.9768749     23465152 0.0011353017    191.22011    1680.2481    -3.261448    2.2438224    192.23774            0 
  225500       225498    99.958703    1.0237866     23473736 0.0011348865    190.48945     1679.981   -4.1275893    2.1685337    192.44851            0 
  226000       225998    100.01695   0.97034891     23501635 0.0011335393    190.81943     1681.179   -3.8883221     2.326509    192.38124            0 
  226500       226498    100.05222   0.97803476     23529408 0.0011322013    189.94636    1680.8314   -4.0859012    2.2653618     191.7669            0 
  227000       226998    99.911028     1.055824     23548976 0.0011312605    190.69041    1679.4716   -4.2885962    2.1190752    192.85993            0 
  227500       227498    99.966617    1.0575045     23547707 0.0011313214     188.6821    1678.2916    -6.124671    2.2322465    192.57452            0 
  228000       227998    99.984167    1.0138023     23544822 0.0011314601    189.26414    1679.1352   -5.5078409    2.2108285    192.56115            0 
  228500       228498    99.978907    1.0268528     23528578 0.0011322412    189.95497    1679.7476   -4.8273114    2.1620997    192.62018            0 
  229000       228998    100.03153    0.9720726     23521204 0.0011325962     189.0084    1679.5851   -5.1994286    2.3129932    191.89483            0 
  229500       229498    100.01347   0.92502105     23521056 0.0011326033    188.51569    1678.8234   -6.0809651    2.3563568     192.2403            0 
  230000       229998    100.00004   0.85388182     23518711 0.0011327163      188.882    1678.9895   -6.3441835    2.3843394    192.84184            0 
  230500       230498    99.975133    0.8008552     23544099 0.0011314948    190.41195    1680.1483   -4.6131206    2.2696846    192.75539            0 
  231000       230998    100.02632   0.80278719     23544905 0.0011314561    189.89685     1680.396   -4.2688506    2.3529216    191.81278            0 
  231500       231498     99.92218   0.93294724     23534537 0.0011319546    190.55721    1679.5046   -4.5615624     2.229424    192.88935            0 
  232000       231998    99.903875    1.0530272     23563263 0.0011305746    191.38599    1680.0606   -3.5300942    2.2428517    192.67323            0 
  232500       232498    100.01114     1.072397     23615643  0.001128067    190.86725    1681.1402   -3.4740668    2.2144449    192.12687            0 
  233000       232998    100.02248    1.1245961     23673584  0.001125306    189.26925    1679.7112   -5.3519751     2.112785    192.50844            0 
  233500       233498    99.953225    1.1196203     23806430 0.0011190265    191.22872    1680.6387   -3.9252271     2.112213    193.04173            0 
  234000       233998    100.01527    1.1046587     23912417 0.0011140666    191.43971    1681.7742   -3.1755732    2.0224046    192.59287            0 
  234500       234498    99.998521    1.1269469     23967879 0.0011114887    191.99316    1682.0781   -2.8038517    2.1573214    192.63969            0 
  235000       234998    100.06731    1.1241664     24013795 0.0011093634    190.18326    1681.2931   -4.0443232     2.164458    192.06312            0 
  235500       235498    100.02995    1.0843226     24044757 0.0011079349    190.30741    1680.8607   -3.9391863    2.0651885    192.18141            0 
  236000       235998    99.965802    1.0944304     24039263 0.0011081881    190.83172    1680.4291    -4.432628     2.041328    193.22302            0 
  236500       236498    99.979473    1.0866854     24041893 0.0011080669    190.55171    1680.3528   -4.3760441    2.0439108    192.88385            0 
  237000       236998    99.989379     1.045081     24042198 0.0011080528     190.1965    1680.1452   -4.8423632    2.1028061    192.93606            0 
  237500       237498    100.08963    1.0165037     24031730 0.0011085355    188.92524    1680.3678   -5.2629761    2.1836239    192.00459            0 
  238000       237998    100.00674   0.98186062     24047838  0.001107793    190.72932    1680.9368   -4.2418066    2.1505533    192.82058            0 
  238500       238498    99.971882   0.89350518     24095500 0.0011056017    190.29915    1679.9871   -4.2065159    2.2030768    192.30258            0 
  239000       238998    99.965354   0.84765594     24137231 0.0011036902    190.16164    1679.7523   -5.5550572     2.272469    193.44422            0 
  239500       239498    99.923579   0.85501607     24163062 0.0011025104    191.11631    1680.0845   -5.1354514     2.191253     194.0605            0 
  240000       239998    100.04341   0.89159259     24173034 0.0011020555    189.48365    1680.2374   -5.3179744    2.2510391    192.55058            0 
  240500       240498    99.977019    1.0054316     24172903 0.0011020615    190.02169    1679.7862   -5.2664138    2.2834378    193.00466            0 
[...]
  942000       941998    99.945038   0.92419308     32541917 0.00081863726    212.88796    1702.1759   -2.6979933    3.9908925    211.59506            0 
  942500       942498    100.00331   0.78322175     32507666 0.0008194998    212.15992    1702.3161   -3.1266542     4.179455    211.10712            0 
  943000       942998    99.897537   0.77354178     32486167 0.00082004214    213.09795    1701.6781   -3.3630757    4.0379744    212.42305            0 
  943500       943498    100.01644   0.78780942     32463390 0.0008206175    210.62754    1700.9795    -4.808764    4.3763141    211.05999            0 
  944000       943998    99.993296   0.84916722     32467152 0.00082052241    211.05384    1701.0609   -3.8610898    4.3073602    210.60757            0 
  944500       944498    99.982589   0.89987675     32476764 0.00082027956    211.67087    1701.5184   -3.5404503    4.0102146    211.20111            0 
  945000       944998    100.05113   0.96953005     32490322 0.00081993726    210.71346    1701.5823   -3.4410166    3.7932801    210.36119            0 
  945500       945498    100.01624    1.0863665     32505659 0.00081955041     210.1954    1700.5443   -4.5292629    3.8874759    210.83719            0 
  946000       945998    100.02098    1.1925609     32520830 0.00081916809    210.75966    1701.1792   -4.5376249    3.6855894    211.61169            0 
  946500       946498    99.972636    1.2409176     32523959 0.00081908926    212.24619    1701.9454   -3.2796016    4.0195061    211.50629            0 
  947000       946998     100.0301    1.2452578     32519252 0.00081920783    209.93937    1700.4948    -4.893289     3.870125    210.96253            0 
  947500       947498    99.989269    1.2199192     32549843 0.00081843792    209.98695     1699.934   -5.5713658    3.4970104     212.0613            0 
  948000       947998    100.10629    1.1132815     32632028 0.00081637665    207.73625     1699.427   -5.3889229    3.9425507    209.18263            0 
  948500       948498    100.04502    1.0136401     32755503 0.00081329924    209.92572    1700.7036   -4.5039784    4.0575813    210.37212            0 
  949000       948998    99.911886   0.98946627     32837754 0.00081126211    211.50235    1700.2963   -4.6346745    4.1345567    212.00247            0 
  949500       949498    100.01527   0.94735808     32840257 0.00081120029    210.27227    1700.6067   -4.6837204    4.1862386    210.76975            0 
  950000       949998    100.08987   0.84021069     32825631 0.00081156174    208.79022    1700.2363    -5.729857    4.4208324    210.09924            0 
  950500       950498    99.958233   0.83743429     32834098 0.00081135245    211.88205    1701.3666   -3.5320363    4.0413337    211.37276            0 
  951000       950998    99.980453   0.75242486     32825834 0.00081155672    211.91324    1701.7289   -3.5185738    4.2639119     211.1679            0 
  951500       951498    99.981847   0.72845732     32831342 0.00081142057    212.61347    1702.4499   -3.0086041    4.6150535    211.00702            0 
  952000       951998    99.924632   0.80492864     32836872 0.0008112839    214.36561    1703.3495   -1.8149493    4.1807123    211.99985            0 
  952500       952498    100.03006   0.81373555     32829791 0.0008114589    213.07321     1703.628   -1.8306702    4.2040839     210.6998            0 
  953000       952998    100.04131   0.94382921     32792735 0.00081237586    211.59429    1702.3168   -3.4697787    4.2285779    210.83549            0 
  953500       953498    99.973865    1.0495203     32792904 0.00081237165    212.71152     1702.429   -2.6354302     3.900959    211.44599            0 
  954000       953998    100.09116    1.1639495     32804438 0.00081208604    211.94982    1703.4152   -2.5136446    3.9352475    210.52821            0 
  954500       954498    100.02699    1.2627403     32818546 0.00081173694    211.59892     1702.108   -3.2549951    3.6475676    211.20634            0 
  955000       954998    99.967237    1.2882707     32843909 0.00081111008    212.83183    1702.4506   -2.5598261    3.7827945    211.60886            0 
  955500       955498    100.01431    1.2591262     32873146 0.0008103887    212.94153    1703.2617   -2.1717855     4.158884    210.95443            0 
  956000       955998    100.00658    1.1968731     32906553 0.00080956598    213.79071    1703.9957   -1.4333748    3.6974634    211.52662            0 
  956500       956498    100.01547    1.0803842     32919542 0.00080924654     213.4693    1703.8067   -2.0597708    3.8737712     211.6553            0 
  957000       956998    99.974912   0.98291318     32927640 0.00080904753    212.85645    1702.5896   -2.8233472     3.904341    211.77545            0 
  957500       957498    100.01592    0.8564871     32908105 0.00080952781    212.23145    1702.5756   -3.0386882     4.215639     211.0545            0 
  958000       957998     99.99835   0.80556428     32884208 0.00081011609    211.81356    1701.8959   -3.4009769    4.4887761    210.72576            0 
  958500       958498    100.03278   0.73820486     32841515 0.00081116921    211.77942    1702.3748   -2.9133426    4.4517092    210.24106            0 
  959000       958998    100.03065   0.73708999     32781729 0.0008126486    212.46408    1703.0278    -2.917688    4.2727228    211.10904            0 
  959500       959498    99.938298   0.78483435     32744626 0.0008135694    213.73034    1702.9179   -2.6829397    4.3810327    212.03224            0 
  960000       959998    100.07208   0.84850909     32724903 0.00081405975    211.64094     1702.822    -3.027303    4.1382535    210.52999            0 
  960500       960498    100.03126   0.94709388     32707588 0.0008144907    212.08137    1702.6542   -2.5647705    4.1039827    210.54216            0 
  961000       960998     99.93926    1.1210494     32720207 0.00081417658    212.12245    1701.3243   -3.8822584    4.0239136    211.98079            0 
  961500       961498    100.02566    1.1656512     32729836 0.00081393703    212.61439    1703.1036   -2.5272947    4.2318322    210.90985            0 
  962000       961998    100.03283    1.2979397     32716914 0.00081425851    211.78448    1702.3806   -3.5281894    3.8096137    211.50306            0 
  962500       962498     99.96989    1.2574901     32720110 0.00081417898    213.03139    1702.6897   -2.4023026    3.8931472    211.54055            0 
  963000       962998     100.0296    1.1829471     32718870 0.00081420984    211.51007    1702.0581   -3.7919278    4.0528331    211.24916            0 
  963500       963498    99.926986    1.1165546     32762448 0.00081312683    212.82483    1701.8438   -2.8945183    3.9706417     211.7487            0 
  964000       963998    99.979386   0.99054826     32818281 0.00081174348    210.95836    1700.7581   -4.7726383    4.2416963     211.4893            0 
  964500       964498    99.968896   0.82958544     32868094 0.00081051327    212.72562    1702.3691   -2.8429038    4.1617577    211.40676            0 
  965000       964998    100.00023   0.69929376     32865351 0.00081058091    213.20279    1703.3131   -2.4092696    4.3891091    211.22295            0 
  965500       965498    99.959375   0.74700044     32871050 0.00081044036     212.9765    1702.4781   -3.2843383    4.0152992    212.24554            0 
  966000       965998    99.962194   0.81658303     32897658 0.00080978488    212.27532    1701.8189    -3.112185    4.2266249    211.16088            0 
  966500       966498    100.02205    0.9985445     32879657 0.00081022822    212.18387    1702.6193   -3.1805877    4.2754818    211.08898            0 
  967000       966998    99.999689     1.190222     32829285 0.0008114714    211.39896    1701.5013   -3.2946627    4.0956269      210.598            0 
  967500       967498     100.0552    1.2589235     32789235 0.00081246257    212.17114    1703.1007   -2.7233601     4.029105     210.8654            0 
  968000       967998    99.995104    1.2835651     32733062 0.00081385683     211.9937    1702.0277   -3.6095806    3.9157468    211.68753            0 
  968500       968498    99.941749    1.2090448     32696681 0.00081476238    213.43641    1702.6754    -2.508181    4.1886119    211.75598            0 
  969000       968998    99.989555    1.0389584     32680144 0.00081517469    212.88856    1702.8399   -2.9191364    3.8506569    211.95704            0 
  969500       969498    100.01904   0.87628413     32688394 0.00081496894     211.7776    1702.1683   -3.8799298     3.935696    211.72183            0 
  970000       969998    99.951129   0.82250508     32736911 0.00081376114    212.79429     1702.173    -3.007783    4.2862982    211.51577            0 
  970500       970498    100.04762   0.83273066     32800658 0.00081217961     211.5687    1702.3852   -3.3716542    4.0168898    210.92347            0 
  971000       970998    99.938525   0.84623264     32854719 0.00081084322    213.75103    1702.9419   -2.5083321    4.2525796    212.00678            0 
  971500       971498    99.975039   0.90525447     32892594 0.00080990956    213.43365    1703.1686   -2.4723853    4.4047318    211.50131            0 
  972000       971998    99.984413   0.96026466     32913407 0.0008093974    213.73668    1703.6114   -2.2983079     4.027458    212.00753            0 
  972500       972498    100.03121   0.99855932     32914075 0.00080938096    212.08663    1702.6587   -3.2756573    4.1677344    211.19456            0 
  973000       972998    99.984395    1.1182927     32925067 0.00080911076    212.34892    1702.2233   -1.9642365    3.9450439    210.36812            0 
  973500       973498    99.966203    1.2108929     32918995 0.00080926001    212.91072     1702.514   -3.4703505    3.9738601    212.40721            0 
  974000       973998    100.00175    1.2219007     32924821 0.00080911681    212.74614    1702.8791   -2.9668108    4.3341084    211.37885            0 
  974500       974498    100.02076    1.1655732     32932671 0.00080892393    211.62316    1702.0394   -3.9035623    4.1969237     211.3298            0 
  975000       974998    99.928382    1.1117071     32926263 0.00080908137    213.57901    1702.6188   -2.2816942     4.117631    211.74308            0 
  975500       975498    99.946117   0.91491668     32898269 0.00080976984    214.31295     1703.617   -1.9925466    4.4158644    211.88963            0 
  976000       975998    100.01993   0.72505899     32883835 0.00081012527    212.66316    1703.0671    -1.964267    4.1565461    210.47088            0 
  976500       976498    99.926118   0.71563746     32874378 0.00081035834    214.43775    1703.4438   -2.3211379    4.4313854     212.3275            0 
  977000       976998    99.879287   0.69258021     32905987 0.00080957991    214.39765    1702.7058   -2.6710662    4.6550389    212.41368            0 
  977500       977498    99.964409   0.75480691     32933370 0.00080890676    213.09332    1702.6699    -3.497643    4.8996755    211.69129            0 
  978000       977998    99.980973   0.91105307     32961285 0.0008082217    212.44942    1702.2728   -3.9592935     4.307189    212.10153            0 
  978500       978498      100.088    1.0146712     32967583 0.00080806731    210.76317    1702.1814   -4.0087367    4.0586111     210.7133            0 
  979000       978998    100.01615    1.1343692     32980209 0.00080775794    211.02718    1701.3747   -4.0728178     4.165352    210.93464            0 
  979500       979498    99.988533    1.2731687     32996640 0.00080735571    212.59001    1702.5261   -3.9045539    3.6495215    212.84504            0 
  980000       979998    100.05721    1.3639569     33005173 0.00080714699    210.96743    1701.9269   -4.3376954    3.8292281     211.4759            0 
  980500       980498    100.04764    1.3080665     33015376 0.00080689755    211.37959    1702.1965    -4.318851    4.1124055    211.58603            0 
  981000       980998    100.06631    1.2283857     33024110 0.00080668415    212.17802    1703.2731    -3.045052    3.8213698    211.40171            0 
  981500       981498    100.04834    1.1321304     33036343 0.00080638545    212.43751    1703.2647   -3.2420254     4.197162    211.48237            0 
  982000       981998    100.07751    1.0000054     33018197 0.00080682862    209.89317    1701.1551   -5.6137369    4.0463673    211.46054            0 
  982500       982498    99.903386   0.93222184     33024409 0.00080667684    213.06843    1701.7357    -4.050622    4.4578503    212.66121            0 
  983000       982998    99.988949   0.81670358     33012145 0.00080697651    212.19738    1702.1397     -3.39529    4.5566076    211.03607            0 
  983500       983498    100.02577   0.75845354     32958396 0.00080829256    211.89815    1702.3891   -3.6064086    4.5108595     210.9937            0 
  984000       983998    99.986732   0.70815154     32878514 0.00081025638    211.86108    1701.7703   -4.6068528    4.5837228    211.88421            0 
  984500       984498    99.904877   0.63666936     32836203 0.00081130043    212.10082    1700.7903   -4.1585906    4.6300033    211.62941            0 
  985000       984998    99.954767    0.6755863     32839540 0.00081121799    211.97678    1701.4097   -4.5557429    4.6551556    211.87736            0 
  985500       985498    100.00172    0.8834945     32837906 0.00081125836    211.21697    1701.3495   -4.4639706    4.3779013    211.30304            0 
  986000       985998    100.05063    1.1449057     32842380 0.00081114786    210.93189    1701.7932   -4.6961847     4.103569     211.5245            0 
  986500       986498    100.03529     1.374042     32870985 0.00081044196    211.88996    1702.5227   -3.2523138     3.907696    211.23458            0 
  987000       986998    100.09966    1.4773247     32903489 0.00080964137    211.10278    1702.6948   -3.1608795    3.6963155    210.56734            0 
  987500       987498    99.992664    1.5387636     32914457 0.00080937158     213.5527    1703.5503   -2.6387614    3.9384816    212.25298            0 
  988000       987998    100.05012    1.4108756     32899370 0.00080974273    211.35011    1702.2039   -3.5908401    4.2481102    210.69284            0 
  988500       988498    99.965991    1.2379696     32895847 0.00080982944    213.06034    1702.6605    -3.339369    4.2042261    212.19548            0 
  989000       988998    99.935787   0.96659524     32893110 0.00080989684    212.73604    1701.8862   -3.2845543    4.3731343    211.64746            0 
  989500       989498    99.996842   0.71272715     32925874 0.00080909092    212.89807     1702.958   -3.0292424    4.5835404    211.34378            0 
  990000       989998    99.974533   0.49091321     32934240 0.0008088854    212.89504    1702.6225    -3.555456    4.6152603    211.83524            0 
  990500       990498    99.987146   0.41551205     32952966 0.00080842573    212.10612    1702.0215   -4.1846271    4.7884527     211.5023            0 
  991000       990998    99.984912   0.49161681     32976924 0.00080783842    211.98981    1701.8719   -4.3665593    4.8523213    211.50405            0 
  991500       991498    99.927097   0.75026493     32987417 0.00080758145    212.58484    1701.6054   -4.6855637    4.8775512    212.39285            0 
  992000       991998    100.03986   0.96188118     32969400 0.00080802277    210.47417    1701.1751   -4.7626257    4.3891307    210.84767            0 
  992500       992498     100.0007    1.1919906     32945964 0.00080859756    212.48955     1702.607   -3.6269187    4.0884665      212.028            0 
  993000       992998    100.04535    1.3476759     32903746 0.00080963506    211.04161    1701.8243   -4.5257235    4.0612802    211.50605            0 
  993500       993498     100.0644    1.4403567     32903545   0.00080964    210.38111    1701.4477   -4.7021429     3.980424    211.10283            0 
  994000       993998    100.01502    1.3605304     32977761 0.00080781791    212.09968    1702.4304   -3.4396446    4.0235243     211.5158            0 
  994500       994498     100.0479    1.3185287     33053441 0.00080596831    211.96715    1702.7879    -3.147793    4.2510929    210.86385            0 
  995000       994998    99.988515    1.2516664     33070208 0.00080555966     212.8581    1702.7939    -3.103027    3.9085553    212.05257            0 
  995500       995498    99.985869    1.0956818     33092918 0.00080500687    213.53153    1703.4279   -2.9296978    4.2120783    212.24915            0 
  996000       995998    100.00614   0.93005285     33077236 0.00080538852     213.5369    1703.7353   -2.6931653    4.2763551    211.95371            0 
  996500       996498     100.0106   0.78811193     33074746 0.00080544916     213.3253    1703.5901   -2.3250789     4.224664    211.42572            0 
  997000       996998    100.00137   0.78696986     33066788 0.00080564299    213.18358     1703.311   -3.2402781    4.7314742    211.69238            0 
  997500       997498    99.941453    0.8191752     33094195 0.00080497579    212.84178    1702.0763   -3.6519366    4.7841742    211.70954            0 
  998000       997998     99.94158   0.91105161     33159549 0.00080338926    214.19637    1703.4328   -2.5941632    4.6832267    212.10731            0 
  998500       998498    99.907204   0.99963035     33191504 0.00080261582    215.62272    1704.3469   -1.2966203    4.7713582    212.14798            0 
  999000       998998    100.04734    1.0783319     33181158 0.00080286607     213.2748    1704.0871   -2.6270024    4.3607837    211.54102            0 
  999500       999498    100.12624    1.0904112     33151732 0.0008035787    211.96742    1703.9555   -2.6656939    4.3895523    210.24356            0 
 1000000       999998    100.03275    1.1970297     33105490 0.00080470115     211.2297    1701.8246   -4.4804839    4.0976562    211.61252            0 
 1000002      1000000    100.07373    1.0178647     33105481 0.00080470136     210.6338    1701.8394   -4.5583149    4.5767468    210.61537            0 
Loop time of 2925.79 on 8 procs for 1000000 steps with 5000 atoms

Performance: 29.530 ns/day, 0.813 hours/ns, 341.788 timesteps/s
100.0% CPU use with 8 MPI tasks x no OpenMP threads

MPI task timing breakdown:
Section |  min time  |  avg time  |  max time  |%varavg| %total
---------------------------------------------------------------
Pair    | 84.448     | 90.719     | 95.029     |  35.4 |  3.10
Bond    | 81.143     | 84.694     | 86.835     |  19.9 |  2.89
Kspace  | 519.56     | 525.52     | 535.63     |  22.6 | 17.96
Neigh   | 12.619     | 12.631     | 12.64      |   0.2 |  0.43
Comm    | 20.859     | 346.43     | 402.56     | 662.5 | 11.84
Output  | 0.94912    | 0.95639    | 0.95756    |   0.3 |  0.03
Modify  | 1149.8     | 1300.9     | 2182.5     | 925.6 | 44.46
Other   |            | 563.9      |            |       | 19.27

Nlocal:        625.000 ave         794 max         568 min
Histogram: 1 5 1 0 0 0 0 0 0 1
Nghost:        359.250 ave         384 max         335 min
Histogram: 1 0 1 1 1 2 0 1 0 1
Neighs:        1692.00 ave        2486 max        1458 min
Histogram: 4 1 1 1 0 0 0 0 0 1

Total # of neighbors = 13536
Ave neighs/atom = 2.7072000
Ave special neighs/atom = 4.0000000
Neighbor list builds = 39854
Dangerous builds = 0

write_data   system_after_npt.data
System init for write_data ...
PPPM initialization ...
  using 12-bit tables for long-range coulomb (../kspace.cpp:340)
  G vector (1/distance) = 0.03394008
  grid = 8 8 8
  stencil order = 5
  estimated absolute RMS force accuracy = 0.043594752
  estimated relative force accuracy = 0.0001312843
  using double precision KISS FFT
  3d grid and FFT values/proc = 729 64
Total wall time: 0:48:46
