LAMMPS Description

     5000  atoms
     4000  bonds
     6000  angles
     0  dihedrals
     0  impropers

     2  atom types
     1  bond types
     1  angle types
     0  dihedral types
     0  improper types

  0.0 103.5 xlo xhi
  0.0 103.5 ylo yhi
  0.0 103.5 zlo zhi

Masses

1 12.011  # 83
2 1.008  # 85

Atoms  # full

1 1 1 0.0 0.0 0.0 0.0
2 1 2 0.0 0.0 0.0 1.089
3 1 2 0.0 1.026719 0.0 -0.363
4 1 2 0.0 -0.51336 -0.889165 -0.363
5 1 2 0.0 -0.51336 0.889165 -0.363
6 2 1 0.0 10.35 0.0 0.0
7 2 2 0.0 10.35 0.0 1.089
8 2 2 0.0 11.376719 0.0 -0.363
9 2 2 0.0 9.83664 -0.889165 -0.363
10 2 2 0.0 9.83664 0.889165 -0.363
11 3 1 0.0 20.7 0.0 0.0
12 3 2 0.0 20.7 0.0 1.089
13 3 2 0.0 21.726719 0.0 -0.363
14 3 2 0.0 20.18664 -0.889165 -0.363
15 3 2 0.0 20.18664 0.889165 -0.363
16 4 1 0.0 31.049999999999997 0.0 0.0
17 4 2 0.0 31.049999999999997 0.0 1.089
18 4 2 0.0 32.076719 0.0 -0.363
19 4 2 0.0 30.53664 -0.889165 -0.363
20 4 2 0.0 30.53664 0.889165 -0.363
21 5 1 0.0 41.4 0.0 0.0
22 5 2 0.0 41.4 0.0 1.089
23 5 2 0.0 42.426719 0.0 -0.363
24 5 2 0.0 40.88664 -0.889165 -0.363
25 5 2 0.0 40.88664 0.889165 -0.363
26 6 1 0.0 51.75 0.0 0.0
27 6 2 0.0 51.75 0.0 1.089
28 6 2 0.0 52.776719 0.0 -0.363
29 6 2 0.0 51.23664 -0.889165 -0.363
30 6 2 0.0 51.23664 0.889165 -0.363
31 7 1 0.0 62.1 0.0 0.0
32 7 2 0.0 62.1 0.0 1.089
33 7 2 0.0 63.126719 0.0 -0.363
34 7 2 0.0 61.58664 -0.889165 -0.363
35 7 2 0.0 61.58664 0.889165 -0.363
36 8 1 0.0 72.45 0.0 0.0
37 8 2 0.0 72.45 0.0 1.089
38 8 2 0.0 73.476719 0.0 -0.363
39 8 2 0.0 71.93664 -0.889165 -0.363
40 8 2 0.0 71.93664 0.889165 -0.363
41 9 1 0.0 82.8 0.0 0.0
42 9 2 0.0 82.8 0.0 1.089
43 9 2 0.0 83.826719 0.0 -0.363
44 9 2 0.0 82.28663999999999 -0.889165 -0.363
45 9 2 0.0 82.28663999999999 0.889165 -0.363
46 10 1 0.0 93.14999999999999 0.0 0.0
47 10 2 0.0 93.14999999999999 0.0 1.089
48 10 2 0.0 94.17671899999999 0.0 -0.363
49 10 2 0.0 92.63663999999999 -0.889165 -0.363
50 10 2 0.0 92.63663999999999 0.889165 -0.363
51 11 1 0.0 0.0 10.35 0.0
52 11 2 0.0 0.0 10.35 1.089
53 11 2 0.0 1.026719 10.35 -0.363
54 11 2 0.0 -0.51336 9.460835 -0.363
55 11 2 0.0 -0.51336 11.239165 -0.363
56 12 1 0.0 10.35 10.35 0.0
57 12 2 0.0 10.35 10.35 1.089
58 12 2 0.0 11.376719 10.35 -0.363
59 12 2 0.0 9.83664 9.460835 -0.363
60 12 2 0.0 9.83664 11.239165 -0.363
61 13 1 0.0 20.7 10.35 0.0
62 13 2 0.0 20.7 10.35 1.089
63 13 2 0.0 21.726719 10.35 -0.363
64 13 2 0.0 20.18664 9.460835 -0.363
65 13 2 0.0 20.18664 11.239165 -0.363
66 14 1 0.0 31.049999999999997 10.35 0.0
67 14 2 0.0 31.049999999999997 10.35 1.089
68 14 2 0.0 32.076719 10.35 -0.363
69 14 2 0.0 30.53664 9.460835 -0.363
70 14 2 0.0 30.53664 11.239165 -0.363
71 15 1 0.0 41.4 10.35 0.0
72 15 2 0.0 41.4 10.35 1.089
73 15 2 0.0 42.426719 10.35 -0.363
74 15 2 0.0 40.88664 9.460835 -0.363
75 15 2 0.0 40.88664 11.239165 -0.363
76 16 1 0.0 51.75 10.35 0.0
77 16 2 0.0 51.75 10.35 1.089
78 16 2 0.0 52.776719 10.35 -0.363
79 16 2 0.0 51.23664 9.460835 -0.363
80 16 2 0.0 51.23664 11.239165 -0.363
81 17 1 0.0 62.1 10.35 0.0
82 17 2 0.0 62.1 10.35 1.089
83 17 2 0.0 63.126719 10.35 -0.363
84 17 2 0.0 61.58664 9.460835 -0.363
85 17 2 0.0 61.58664 11.239165 -0.363
86 18 1 0.0 72.45 10.35 0.0
87 18 2 0.0 72.45 10.35 1.089
88 18 2 0.0 73.476719 10.35 -0.363
89 18 2 0.0 71.93664 9.460835 -0.363
90 18 2 0.0 71.93664 11.239165 -0.363
91 19 1 0.0 82.8 10.35 0.0
92 19 2 0.0 82.8 10.35 1.089
93 19 2 0.0 83.826719 10.35 -0.363
94 19 2 0.0 82.28663999999999 9.460835 -0.363
95 19 2 0.0 82.28663999999999 11.239165 -0.363
96 20 1 0.0 93.14999999999999 10.35 0.0
97 20 2 0.0 93.14999999999999 10.35 1.089
98 20 2 0.0 94.17671899999999 10.35 -0.363
99 20 2 0.0 92.63663999999999 9.460835 -0.363
100 20 2 0.0 92.63663999999999 11.239165 -0.363
101 21 1 0.0 0.0 20.7 0.0
102 21 2 0.0 0.0 20.7 1.089
103 21 2 0.0 1.026719 20.7 -0.363
104 21 2 0.0 -0.51336 19.810835 -0.363
105 21 2 0.0 -0.51336 21.589164999999998 -0.363
106 22 1 0.0 10.35 20.7 0.0
107 22 2 0.0 10.35 20.7 1.089
108 22 2 0.0 11.376719 20.7 -0.363
109 22 2 0.0 9.83664 19.810835 -0.363
110 22 2 0.0 9.83664 21.589164999999998 -0.363
111 23 1 0.0 20.7 20.7 0.0
112 23 2 0.0 20.7 20.7 1.089
113 23 2 0.0 21.726719 20.7 -0.363
114 23 2 0.0 20.18664 19.810835 -0.363
115 23 2 0.0 20.18664 21.589164999999998 -0.363
116 24 1 0.0 31.049999999999997 20.7 0.0
117 24 2 0.0 31.049999999999997 20.7 1.089
118 24 2 0.0 32.076719 20.7 -0.363
119 24 2 0.0 30.53664 19.810835 -0.363
120 24 2 0.0 30.53664 21.589164999999998 -0.363
121 25 1 0.0 41.4 20.7 0.0
122 25 2 0.0 41.4 20.7 1.089
123 25 2 0.0 42.426719 20.7 -0.363
124 25 2 0.0 40.88664 19.810835 -0.363
125 25 2 0.0 40.88664 21.589164999999998 -0.363
126 26 1 0.0 51.75 20.7 0.0
127 26 2 0.0 51.75 20.7 1.089
128 26 2 0.0 52.776719 20.7 -0.363
129 26 2 0.0 51.23664 19.810835 -0.363
130 26 2 0.0 51.23664 21.589164999999998 -0.363
131 27 1 0.0 62.1 20.7 0.0
132 27 2 0.0 62.1 20.7 1.089
133 27 2 0.0 63.126719 20.7 -0.363
134 27 2 0.0 61.58664 19.810835 -0.363
135 27 2 0.0 61.58664 21.589164999999998 -0.363
136 28 1 0.0 72.45 20.7 0.0
137 28 2 0.0 72.45 20.7 1.089
138 28 2 0.0 73.476719 20.7 -0.363
139 28 2 0.0 71.93664 19.810835 -0.363
140 28 2 0.0 71.93664 21.589164999999998 -0.363
141 29 1 0.0 82.8 20.7 0.0
142 29 2 0.0 82.8 20.7 1.089
143 29 2 0.0 83.826719 20.7 -0.363
144 29 2 0.0 82.28663999999999 19.810835 -0.363
145 29 2 0.0 82.28663999999999 21.589164999999998 -0.363
146 30 1 0.0 93.14999999999999 20.7 0.0
147 30 2 0.0 93.14999999999999 20.7 1.089
148 30 2 0.0 94.17671899999999 20.7 -0.363
149 30 2 0.0 92.63663999999999 19.810835 -0.363
150 30 2 0.0 92.63663999999999 21.589164999999998 -0.363
151 31 1 0.0 0.0 31.049999999999997 0.0
152 31 2 0.0 0.0 31.049999999999997 1.089
153 31 2 0.0 1.026719 31.049999999999997 -0.363
154 31 2 0.0 -0.51336 30.160835 -0.363
155 31 2 0.0 -0.51336 31.939164999999996 -0.363
156 32 1 0.0 10.35 31.049999999999997 0.0
157 32 2 0.0 10.35 31.049999999999997 1.089
158 32 2 0.0 11.376719 31.049999999999997 -0.363
159 32 2 0.0 9.83664 30.160835 -0.363
160 32 2 0.0 9.83664 31.939164999999996 -0.363
161 33 1 0.0 20.7 31.049999999999997 0.0
162 33 2 0.0 20.7 31.049999999999997 1.089
163 33 2 0.0 21.726719 31.049999999999997 -0.363
164 33 2 0.0 20.18664 30.160835 -0.363
165 33 2 0.0 20.18664 31.939164999999996 -0.363
166 34 1 0.0 31.049999999999997 31.049999999999997 0.0
167 34 2 0.0 31.049999999999997 31.049999999999997 1.089
168 34 2 0.0 32.076719 31.049999999999997 -0.363
169 34 2 0.0 30.53664 30.160835 -0.363
170 34 2 0.0 30.53664 31.939164999999996 -0.363
171 35 1 0.0 41.4 31.049999999999997 0.0
172 35 2 0.0 41.4 31.049999999999997 1.089
173 35 2 0.0 42.426719 31.049999999999997 -0.363
174 35 2 0.0 40.88664 30.160835 -0.363
175 35 2 0.0 40.88664 31.939164999999996 -0.363
176 36 1 0.0 51.75 31.049999999999997 0.0
177 36 2 0.0 51.75 31.049999999999997 1.089
178 36 2 0.0 52.776719 31.049999999999997 -0.363
179 36 2 0.0 51.23664 30.160835 -0.363
180 36 2 0.0 51.23664 31.939164999999996 -0.363
181 37 1 0.0 62.1 31.049999999999997 0.0
182 37 2 0.0 62.1 31.049999999999997 1.089
183 37 2 0.0 63.126719 31.049999999999997 -0.363
184 37 2 0.0 61.58664 30.160835 -0.363
185 37 2 0.0 61.58664 31.939164999999996 -0.363
186 38 1 0.0 72.45 31.049999999999997 0.0
187 38 2 0.0 72.45 31.049999999999997 1.089
188 38 2 0.0 73.476719 31.049999999999997 -0.363
189 38 2 0.0 71.93664 30.160835 -0.363
190 38 2 0.0 71.93664 31.939164999999996 -0.363
191 39 1 0.0 82.8 31.049999999999997 0.0
192 39 2 0.0 82.8 31.049999999999997 1.089
193 39 2 0.0 83.826719 31.049999999999997 -0.363
194 39 2 0.0 82.28663999999999 30.160835 -0.363
195 39 2 0.0 82.28663999999999 31.939164999999996 -0.363
196 40 1 0.0 93.14999999999999 31.049999999999997 0.0
197 40 2 0.0 93.14999999999999 31.049999999999997 1.089
198 40 2 0.0 94.17671899999999 31.049999999999997 -0.363
199 40 2 0.0 92.63663999999999 30.160835 -0.363
200 40 2 0.0 92.63663999999999 31.939164999999996 -0.363
201 41 1 0.0 0.0 41.4 0.0
202 41 2 0.0 0.0 41.4 1.089
203 41 2 0.0 1.026719 41.4 -0.363
204 41 2 0.0 -0.51336 40.510835 -0.363
205 41 2 0.0 -0.51336 42.289165 -0.363
206 42 1 0.0 10.35 41.4 0.0
207 42 2 0.0 10.35 41.4 1.089
208 42 2 0.0 11.376719 41.4 -0.363
209 42 2 0.0 9.83664 40.510835 -0.363
210 42 2 0.0 9.83664 42.289165 -0.363
211 43 1 0.0 20.7 41.4 0.0
212 43 2 0.0 20.7 41.4 1.089
213 43 2 0.0 21.726719 41.4 -0.363
214 43 2 0.0 20.18664 40.510835 -0.363
215 43 2 0.0 20.18664 42.289165 -0.363
216 44 1 0.0 31.049999999999997 41.4 0.0
217 44 2 0.0 31.049999999999997 41.4 1.089
218 44 2 0.0 32.076719 41.4 -0.363
219 44 2 0.0 30.53664 40.510835 -0.363
220 44 2 0.0 30.53664 42.289165 -0.363
221 45 1 0.0 41.4 41.4 0.0
222 45 2 0.0 41.4 41.4 1.089
223 45 2 0.0 42.426719 41.4 -0.363
224 45 2 0.0 40.88664 40.510835 -0.363
225 45 2 0.0 40.88664 42.289165 -0.363
226 46 1 0.0 51.75 41.4 0.0
227 46 2 0.0 51.75 41.4 1.089
228 46 2 0.0 52.776719 41.4 -0.363
229 46 2 0.0 51.23664 40.510835 -0.363
230 46 2 0.0 51.23664 42.289165 -0.363
231 47 1 0.0 62.1 41.4 0.0
232 47 2 0.0 62.1 41.4 1.089
233 47 2 0.0 63.126719 41.4 -0.363
234 47 2 0.0 61.58664 40.510835 -0.363
235 47 2 0.0 61.58664 42.289165 -0.363
236 48 1 0.0 72.45 41.4 0.0
237 48 2 0.0 72.45 41.4 1.089
238 48 2 0.0 73.476719 41.4 -0.363
239 48 2 0.0 71.93664 40.510835 -0.363
240 48 2 0.0 71.93664 42.289165 -0.363
241 49 1 0.0 82.8 41.4 0.0
242 49 2 0.0 82.8 41.4 1.089
243 49 2 0.0 83.826719 41.4 -0.363
244 49 2 0.0 82.28663999999999 40.510835 -0.363
245 49 2 0.0 82.28663999999999 42.289165 -0.363
246 50 1 0.0 93.14999999999999 41.4 0.0
247 50 2 0.0 93.14999999999999 41.4 1.089
248 50 2 0.0 94.17671899999999 41.4 -0.363
249 50 2 0.0 92.63663999999999 40.510835 -0.363
250 50 2 0.0 92.63663999999999 42.289165 -0.363
251 51 1 0.0 0.0 51.75 0.0
252 51 2 0.0 0.0 51.75 1.089
253 51 2 0.0 1.026719 51.75 -0.363
254 51 2 0.0 -0.51336 50.860835 -0.363
255 51 2 0.0 -0.51336 52.639165 -0.363
256 52 1 0.0 10.35 51.75 0.0
257 52 2 0.0 10.35 51.75 1.089
258 52 2 0.0 11.376719 51.75 -0.363
259 52 2 0.0 9.83664 50.860835 -0.363
260 52 2 0.0 9.83664 52.639165 -0.363
261 53 1 0.0 20.7 51.75 0.0
262 53 2 0.0 20.7 51.75 1.089
263 53 2 0.0 21.726719 51.75 -0.363
264 53 2 0.0 20.18664 50.860835 -0.363
265 53 2 0.0 20.18664 52.639165 -0.363
266 54 1 0.0 31.049999999999997 51.75 0.0
267 54 2 0.0 31.049999999999997 51.75 1.089
268 54 2 0.0 32.076719 51.75 -0.363
269 54 2 0.0 30.53664 50.860835 -0.363
270 54 2 0.0 30.53664 52.639165 -0.363
271 55 1 0.0 41.4 51.75 0.0
272 55 2 0.0 41.4 51.75 1.089
273 55 2 0.0 42.426719 51.75 -0.363
274 55 2 0.0 40.88664 50.860835 -0.363
275 55 2 0.0 40.88664 52.639165 -0.363
276 56 1 0.0 51.75 51.75 0.0
277 56 2 0.0 51.75 51.75 1.089
278 56 2 0.0 52.776719 51.75 -0.363
279 56 2 0.0 51.23664 50.860835 -0.363
280 56 2 0.0 51.23664 52.639165 -0.363
281 57 1 0.0 62.1 51.75 0.0
282 57 2 0.0 62.1 51.75 1.089
283 57 2 0.0 63.126719 51.75 -0.363
284 57 2 0.0 61.58664 50.860835 -0.363
285 57 2 0.0 61.58664 52.639165 -0.363
286 58 1 0.0 72.45 51.75 0.0
287 58 2 0.0 72.45 51.75 1.089
288 58 2 0.0 73.476719 51.75 -0.363
289 58 2 0.0 71.93664 50.860835 -0.363
290 58 2 0.0 71.93664 52.639165 -0.363
291 59 1 0.0 82.8 51.75 0.0
292 59 2 0.0 82.8 51.75 1.089
293 59 2 0.0 83.826719 51.75 -0.363
294 59 2 0.0 82.28663999999999 50.860835 -0.363
295 59 2 0.0 82.28663999999999 52.639165 -0.363
296 60 1 0.0 93.14999999999999 51.75 0.0
297 60 2 0.0 93.14999999999999 51.75 1.089
298 60 2 0.0 94.17671899999999 51.75 -0.363
299 60 2 0.0 92.63663999999999 50.860835 -0.363
300 60 2 0.0 92.63663999999999 52.639165 -0.363
301 61 1 0.0 0.0 62.1 0.0
302 61 2 0.0 0.0 62.1 1.089
303 61 2 0.0 1.026719 62.1 -0.363
304 61 2 0.0 -0.51336 61.210835 -0.363
305 61 2 0.0 -0.51336 62.989165 -0.363
306 62 1 0.0 10.35 62.1 0.0
307 62 2 0.0 10.35 62.1 1.089
308 62 2 0.0 11.376719 62.1 -0.363
309 62 2 0.0 9.83664 61.210835 -0.363
310 62 2 0.0 9.83664 62.989165 -0.363
311 63 1 0.0 20.7 62.1 0.0
312 63 2 0.0 20.7 62.1 1.089
313 63 2 0.0 21.726719 62.1 -0.363
314 63 2 0.0 20.18664 61.210835 -0.363
315 63 2 0.0 20.18664 62.989165 -0.363
316 64 1 0.0 31.049999999999997 62.1 0.0
317 64 2 0.0 31.049999999999997 62.1 1.089
318 64 2 0.0 32.076719 62.1 -0.363
319 64 2 0.0 30.53664 61.210835 -0.363
320 64 2 0.0 30.53664 62.989165 -0.363
321 65 1 0.0 41.4 62.1 0.0
322 65 2 0.0 41.4 62.1 1.089
323 65 2 0.0 42.426719 62.1 -0.363
324 65 2 0.0 40.88664 61.210835 -0.363
325 65 2 0.0 40.88664 62.989165 -0.363
326 66 1 0.0 51.75 62.1 0.0
327 66 2 0.0 51.75 62.1 1.089
328 66 2 0.0 52.776719 62.1 -0.363
329 66 2 0.0 51.23664 61.210835 -0.363
330 66 2 0.0 51.23664 62.989165 -0.363
331 67 1 0.0 62.1 62.1 0.0
332 67 2 0.0 62.1 62.1 1.089
333 67 2 0.0 63.126719 62.1 -0.363
334 67 2 0.0 61.58664 61.210835 -0.363
335 67 2 0.0 61.58664 62.989165 -0.363
336 68 1 0.0 72.45 62.1 0.0
337 68 2 0.0 72.45 62.1 1.089
338 68 2 0.0 73.476719 62.1 -0.363
339 68 2 0.0 71.93664 61.210835 -0.363
340 68 2 0.0 71.93664 62.989165 -0.363
341 69 1 0.0 82.8 62.1 0.0
342 69 2 0.0 82.8 62.1 1.089
343 69 2 0.0 83.826719 62.1 -0.363
344 69 2 0.0 82.28663999999999 61.210835 -0.363
345 69 2 0.0 82.28663999999999 62.989165 -0.363
346 70 1 0.0 93.14999999999999 62.1 0.0
347 70 2 0.0 93.14999999999999 62.1 1.089
348 70 2 0.0 94.17671899999999 62.1 -0.363
349 70 2 0.0 92.63663999999999 61.210835 -0.363
350 70 2 0.0 92.63663999999999 62.989165 -0.363
351 71 1 0.0 0.0 72.45 0.0
352 71 2 0.0 0.0 72.45 1.089
353 71 2 0.0 1.026719 72.45 -0.363
354 71 2 0.0 -0.51336 71.560835 -0.363
355 71 2 0.0 -0.51336 73.33916500000001 -0.363
356 72 1 0.0 10.35 72.45 0.0
357 72 2 0.0 10.35 72.45 1.089
358 72 2 0.0 11.376719 72.45 -0.363
359 72 2 0.0 9.83664 71.560835 -0.363
360 72 2 0.0 9.83664 73.33916500000001 -0.363
361 73 1 0.0 20.7 72.45 0.0
362 73 2 0.0 20.7 72.45 1.089
363 73 2 0.0 21.726719 72.45 -0.363
364 73 2 0.0 20.18664 71.560835 -0.363
365 73 2 0.0 20.18664 73.33916500000001 -0.363
366 74 1 0.0 31.049999999999997 72.45 0.0
367 74 2 0.0 31.049999999999997 72.45 1.089
368 74 2 0.0 32.076719 72.45 -0.363
369 74 2 0.0 30.53664 71.560835 -0.363
370 74 2 0.0 30.53664 73.33916500000001 -0.363
371 75 1 0.0 41.4 72.45 0.0
372 75 2 0.0 41.4 72.45 1.089
373 75 2 0.0 42.426719 72.45 -0.363
374 75 2 0.0 40.88664 71.560835 -0.363
375 75 2 0.0 40.88664 73.33916500000001 -0.363
376 76 1 0.0 51.75 72.45 0.0
377 76 2 0.0 51.75 72.45 1.089
378 76 2 0.0 52.776719 72.45 -0.363
379 76 2 0.0 51.23664 71.560835 -0.363
380 76 2 0.0 51.23664 73.33916500000001 -0.363
381 77 1 0.0 62.1 72.45 0.0
382 77 2 0.0 62.1 72.45 1.089
383 77 2 0.0 63.126719 72.45 -0.363
384 77 2 0.0 61.58664 71.560835 -0.363
385 77 2 0.0 61.58664 73.33916500000001 -0.363
386 78 1 0.0 72.45 72.45 0.0
387 78 2 0.0 72.45 72.45 1.089
388 78 2 0.0 73.476719 72.45 -0.363
389 78 2 0.0 71.93664 71.560835 -0.363
390 78 2 0.0 71.93664 73.33916500000001 -0.363
391 79 1 0.0 82.8 72.45 0.0
392 79 2 0.0 82.8 72.45 1.089
393 79 2 0.0 83.826719 72.45 -0.363
394 79 2 0.0 82.28663999999999 71.560835 -0.363
395 79 2 0.0 82.28663999999999 73.33916500000001 -0.363
396 80 1 0.0 93.14999999999999 72.45 0.0
397 80 2 0.0 93.14999999999999 72.45 1.089
398 80 2 0.0 94.17671899999999 72.45 -0.363
399 80 2 0.0 92.63663999999999 71.560835 -0.363
400 80 2 0.0 92.63663999999999 73.33916500000001 -0.363
401 81 1 0.0 0.0 82.8 0.0
402 81 2 0.0 0.0 82.8 1.089
403 81 2 0.0 1.026719 82.8 -0.363
404 81 2 0.0 -0.51336 81.91083499999999 -0.363
405 81 2 0.0 -0.51336 83.689165 -0.363
406 82 1 0.0 10.35 82.8 0.0
407 82 2 0.0 10.35 82.8 1.089
408 82 2 0.0 11.376719 82.8 -0.363
409 82 2 0.0 9.83664 81.91083499999999 -0.363
410 82 2 0.0 9.83664 83.689165 -0.363
411 83 1 0.0 20.7 82.8 0.0
412 83 2 0.0 20.7 82.8 1.089
413 83 2 0.0 21.726719 82.8 -0.363
414 83 2 0.0 20.18664 81.91083499999999 -0.363
415 83 2 0.0 20.18664 83.689165 -0.363
416 84 1 0.0 31.049999999999997 82.8 0.0
417 84 2 0.0 31.049999999999997 82.8 1.089
418 84 2 0.0 32.076719 82.8 -0.363
419 84 2 0.0 30.53664 81.91083499999999 -0.363
420 84 2 0.0 30.53664 83.689165 -0.363
421 85 1 0.0 41.4 82.8 0.0
422 85 2 0.0 41.4 82.8 1.089
423 85 2 0.0 42.426719 82.8 -0.363
424 85 2 0.0 40.88664 81.91083499999999 -0.363
425 85 2 0.0 40.88664 83.689165 -0.363
426 86 1 0.0 51.75 82.8 0.0
427 86 2 0.0 51.75 82.8 1.089
428 86 2 0.0 52.776719 82.8 -0.363
429 86 2 0.0 51.23664 81.91083499999999 -0.363
430 86 2 0.0 51.23664 83.689165 -0.363
431 87 1 0.0 62.1 82.8 0.0
432 87 2 0.0 62.1 82.8 1.089
433 87 2 0.0 63.126719 82.8 -0.363
434 87 2 0.0 61.58664 81.91083499999999 -0.363
435 87 2 0.0 61.58664 83.689165 -0.363
436 88 1 0.0 72.45 82.8 0.0
437 88 2 0.0 72.45 82.8 1.089
438 88 2 0.0 73.476719 82.8 -0.363
439 88 2 0.0 71.93664 81.91083499999999 -0.363
440 88 2 0.0 71.93664 83.689165 -0.363
441 89 1 0.0 82.8 82.8 0.0
442 89 2 0.0 82.8 82.8 1.089
443 89 2 0.0 83.826719 82.8 -0.363
444 89 2 0.0 82.28663999999999 81.91083499999999 -0.363
445 89 2 0.0 82.28663999999999 83.689165 -0.363
446 90 1 0.0 93.14999999999999 82.8 0.0
447 90 2 0.0 93.14999999999999 82.8 1.089
448 90 2 0.0 94.17671899999999 82.8 -0.363
449 90 2 0.0 92.63663999999999 81.91083499999999 -0.363
450 90 2 0.0 92.63663999999999 83.689165 -0.363
451 91 1 0.0 0.0 93.14999999999999 0.0
452 91 2 0.0 0.0 93.14999999999999 1.089
453 91 2 0.0 1.026719 93.14999999999999 -0.363
454 91 2 0.0 -0.51336 92.26083499999999 -0.363
455 91 2 0.0 -0.51336 94.039165 -0.363
456 92 1 0.0 10.35 93.14999999999999 0.0
457 92 2 0.0 10.35 93.14999999999999 1.089
458 92 2 0.0 11.376719 93.14999999999999 -0.363
459 92 2 0.0 9.83664 92.26083499999999 -0.363
460 92 2 0.0 9.83664 94.039165 -0.363
461 93 1 0.0 20.7 93.14999999999999 0.0
462 93 2 0.0 20.7 93.14999999999999 1.089
463 93 2 0.0 21.726719 93.14999999999999 -0.363
464 93 2 0.0 20.18664 92.26083499999999 -0.363
465 93 2 0.0 20.18664 94.039165 -0.363
466 94 1 0.0 31.049999999999997 93.14999999999999 0.0
467 94 2 0.0 31.049999999999997 93.14999999999999 1.089
468 94 2 0.0 32.076719 93.14999999999999 -0.363
469 94 2 0.0 30.53664 92.26083499999999 -0.363
470 94 2 0.0 30.53664 94.039165 -0.363
471 95 1 0.0 41.4 93.14999999999999 0.0
472 95 2 0.0 41.4 93.14999999999999 1.089
473 95 2 0.0 42.426719 93.14999999999999 -0.363
474 95 2 0.0 40.88664 92.26083499999999 -0.363
475 95 2 0.0 40.88664 94.039165 -0.363
476 96 1 0.0 51.75 93.14999999999999 0.0
477 96 2 0.0 51.75 93.14999999999999 1.089
478 96 2 0.0 52.776719 93.14999999999999 -0.363
479 96 2 0.0 51.23664 92.26083499999999 -0.363
480 96 2 0.0 51.23664 94.039165 -0.363
481 97 1 0.0 62.1 93.14999999999999 0.0
482 97 2 0.0 62.1 93.14999999999999 1.089
483 97 2 0.0 63.126719 93.14999999999999 -0.363
484 97 2 0.0 61.58664 92.26083499999999 -0.363
485 97 2 0.0 61.58664 94.039165 -0.363
486 98 1 0.0 72.45 93.14999999999999 0.0
487 98 2 0.0 72.45 93.14999999999999 1.089
488 98 2 0.0 73.476719 93.14999999999999 -0.363
489 98 2 0.0 71.93664 92.26083499999999 -0.363
490 98 2 0.0 71.93664 94.039165 -0.363
491 99 1 0.0 82.8 93.14999999999999 0.0
492 99 2 0.0 82.8 93.14999999999999 1.089
493 99 2 0.0 83.826719 93.14999999999999 -0.363
494 99 2 0.0 82.28663999999999 92.26083499999999 -0.363
495 99 2 0.0 82.28663999999999 94.039165 -0.363
496 100 1 0.0 93.14999999999999 93.14999999999999 0.0
497 100 2 0.0 93.14999999999999 93.14999999999999 1.089
498 100 2 0.0 94.17671899999999 93.14999999999999 -0.363
499 100 2 0.0 92.63663999999999 92.26083499999999 -0.363
500 100 2 0.0 92.63663999999999 94.039165 -0.363
501 101 1 0.0 0.0 0.0 10.35
502 101 2 0.0 0.0 0.0 11.439
503 101 2 0.0 1.026719 0.0 9.987
504 101 2 0.0 -0.51336 -0.889165 9.987
505 101 2 0.0 -0.51336 0.889165 9.987
506 102 1 0.0 10.35 0.0 10.35
507 102 2 0.0 10.35 0.0 11.439
508 102 2 0.0 11.376719 0.0 9.987
509 102 2 0.0 9.83664 -0.889165 9.987
510 102 2 0.0 9.83664 0.889165 9.987
511 103 1 0.0 20.7 0.0 10.35
512 103 2 0.0 20.7 0.0 11.439
513 103 2 0.0 21.726719 0.0 9.987
514 103 2 0.0 20.18664 -0.889165 9.987
515 103 2 0.0 20.18664 0.889165 9.987
516 104 1 0.0 31.049999999999997 0.0 10.35
517 104 2 0.0 31.049999999999997 0.0 11.439
518 104 2 0.0 32.076719 0.0 9.987
519 104 2 0.0 30.53664 -0.889165 9.987
520 104 2 0.0 30.53664 0.889165 9.987
521 105 1 0.0 41.4 0.0 10.35
522 105 2 0.0 41.4 0.0 11.439
523 105 2 0.0 42.426719 0.0 9.987
524 105 2 0.0 40.88664 -0.889165 9.987
525 105 2 0.0 40.88664 0.889165 9.987
526 106 1 0.0 51.75 0.0 10.35
527 106 2 0.0 51.75 0.0 11.439
528 106 2 0.0 52.776719 0.0 9.987
529 106 2 0.0 51.23664 -0.889165 9.987
530 106 2 0.0 51.23664 0.889165 9.987
531 107 1 0.0 62.1 0.0 10.35
532 107 2 0.0 62.1 0.0 11.439
533 107 2 0.0 63.126719 0.0 9.987
534 107 2 0.0 61.58664 -0.889165 9.987
535 107 2 0.0 61.58664 0.889165 9.987
536 108 1 0.0 72.45 0.0 10.35
537 108 2 0.0 72.45 0.0 11.439
538 108 2 0.0 73.476719 0.0 9.987
539 108 2 0.0 71.93664 -0.889165 9.987
540 108 2 0.0 71.93664 0.889165 9.987
541 109 1 0.0 82.8 0.0 10.35
542 109 2 0.0 82.8 0.0 11.439
543 109 2 0.0 83.826719 0.0 9.987
544 109 2 0.0 82.28663999999999 -0.889165 9.987
545 109 2 0.0 82.28663999999999 0.889165 9.987
546 110 1 0.0 93.14999999999999 0.0 10.35
547 110 2 0.0 93.14999999999999 0.0 11.439
548 110 2 0.0 94.17671899999999 0.0 9.987
549 110 2 0.0 92.63663999999999 -0.889165 9.987
550 110 2 0.0 92.63663999999999 0.889165 9.987
551 111 1 0.0 0.0 10.35 10.35
552 111 2 0.0 0.0 10.35 11.439
553 111 2 0.0 1.026719 10.35 9.987
554 111 2 0.0 -0.51336 9.460835 9.987
555 111 2 0.0 -0.51336 11.239165 9.987
556 112 1 0.0 10.35 10.35 10.35
557 112 2 0.0 10.35 10.35 11.439
558 112 2 0.0 11.376719 10.35 9.987
559 112 2 0.0 9.83664 9.460835 9.987
560 112 2 0.0 9.83664 11.239165 9.987
561 113 1 0.0 20.7 10.35 10.35
562 113 2 0.0 20.7 10.35 11.439
563 113 2 0.0 21.726719 10.35 9.987
564 113 2 0.0 20.18664 9.460835 9.987
565 113 2 0.0 20.18664 11.239165 9.987
566 114 1 0.0 31.049999999999997 10.35 10.35
567 114 2 0.0 31.049999999999997 10.35 11.439
568 114 2 0.0 32.076719 10.35 9.987
569 114 2 0.0 30.53664 9.460835 9.987
570 114 2 0.0 30.53664 11.239165 9.987
571 115 1 0.0 41.4 10.35 10.35
572 115 2 0.0 41.4 10.35 11.439
573 115 2 0.0 42.426719 10.35 9.987
574 115 2 0.0 40.88664 9.460835 9.987
575 115 2 0.0 40.88664 11.239165 9.987
576 116 1 0.0 51.75 10.35 10.35
577 116 2 0.0 51.75 10.35 11.439
578 116 2 0.0 52.776719 10.35 9.987
579 116 2 0.0 51.23664 9.460835 9.987
580 116 2 0.0 51.23664 11.239165 9.987
581 117 1 0.0 62.1 10.35 10.35
582 117 2 0.0 62.1 10.35 11.439
583 117 2 0.0 63.126719 10.35 9.987
584 117 2 0.0 61.58664 9.460835 9.987
585 117 2 0.0 61.58664 11.239165 9.987
586 118 1 0.0 72.45 10.35 10.35
587 118 2 0.0 72.45 10.35 11.439
588 118 2 0.0 73.476719 10.35 9.987
589 118 2 0.0 71.93664 9.460835 9.987
590 118 2 0.0 71.93664 11.239165 9.987
591 119 1 0.0 82.8 10.35 10.35
592 119 2 0.0 82.8 10.35 11.439
593 119 2 0.0 83.826719 10.35 9.987
594 119 2 0.0 82.28663999999999 9.460835 9.987
595 119 2 0.0 82.28663999999999 11.239165 9.987
596 120 1 0.0 93.14999999999999 10.35 10.35
597 120 2 0.0 93.14999999999999 10.35 11.439
598 120 2 0.0 94.17671899999999 10.35 9.987
599 120 2 0.0 92.63663999999999 9.460835 9.987
600 120 2 0.0 92.63663999999999 11.239165 9.987
601 121 1 0.0 0.0 20.7 10.35
602 121 2 0.0 0.0 20.7 11.439
603 121 2 0.0 1.026719 20.7 9.987
604 121 2 0.0 -0.51336 19.810835 9.987
605 121 2 0.0 -0.51336 21.589164999999998 9.987
606 122 1 0.0 10.35 20.7 10.35
607 122 2 0.0 10.35 20.7 11.439
608 122 2 0.0 11.376719 20.7 9.987
609 122 2 0.0 9.83664 19.810835 9.987
610 122 2 0.0 9.83664 21.589164999999998 9.987
611 123 1 0.0 20.7 20.7 10.35
612 123 2 0.0 20.7 20.7 11.439
613 123 2 0.0 21.726719 20.7 9.987
614 123 2 0.0 20.18664 19.810835 9.987
615 123 2 0.0 20.18664 21.589164999999998 9.987
616 124 1 0.0 31.049999999999997 20.7 10.35
617 124 2 0.0 31.049999999999997 20.7 11.439
618 124 2 0.0 32.076719 20.7 9.987
619 124 2 0.0 30.53664 19.810835 9.987
620 124 2 0.0 30.53664 21.589164999999998 9.987
621 125 1 0.0 41.4 20.7 10.35
622 125 2 0.0 41.4 20.7 11.439
623 125 2 0.0 42.426719 20.7 9.987
624 125 2 0.0 40.88664 19.810835 9.987
625 125 2 0.0 40.88664 21.589164999999998 9.987
626 126 1 0.0 51.75 20.7 10.35
627 126 2 0.0 51.75 20.7 11.439
628 126 2 0.0 52.776719 20.7 9.987
629 126 2 0.0 51.23664 19.810835 9.987
630 126 2 0.0 51.23664 21.589164999999998 9.987
631 127 1 0.0 62.1 20.7 10.35
632 127 2 0.0 62.1 20.7 11.439
633 127 2 0.0 63.126719 20.7 9.987
634 127 2 0.0 61.58664 19.810835 9.987
635 127 2 0.0 61.58664 21.589164999999998 9.987
636 128 1 0.0 72.45 20.7 10.35
637 128 2 0.0 72.45 20.7 11.439
638 128 2 0.0 73.476719 20.7 9.987
639 128 2 0.0 71.93664 19.810835 9.987
640 128 2 0.0 71.93664 21.589164999999998 9.987
641 129 1 0.0 82.8 20.7 10.35
642 129 2 0.0 82.8 20.7 11.439
643 129 2 0.0 83.826719 20.7 9.987
644 129 2 0.0 82.28663999999999 19.810835 9.987
645 129 2 0.0 82.28663999999999 21.589164999999998 9.987
646 130 1 0.0 93.14999999999999 20.7 10.35
647 130 2 0.0 93.14999999999999 20.7 11.439
648 130 2 0.0 94.17671899999999 20.7 9.987
649 130 2 0.0 92.63663999999999 19.810835 9.987
650 130 2 0.0 92.63663999999999 21.589164999999998 9.987
651 131 1 0.0 0.0 31.049999999999997 10.35
652 131 2 0.0 0.0 31.049999999999997 11.439
653 131 2 0.0 1.026719 31.049999999999997 9.987
654 131 2 0.0 -0.51336 30.160835 9.987
655 131 2 0.0 -0.51336 31.939164999999996 9.987
656 132 1 0.0 10.35 31.049999999999997 10.35
657 132 2 0.0 10.35 31.049999999999997 11.439
658 132 2 0.0 11.376719 31.049999999999997 9.987
659 132 2 0.0 9.83664 30.160835 9.987
660 132 2 0.0 9.83664 31.939164999999996 9.987
661 133 1 0.0 20.7 31.049999999999997 10.35
662 133 2 0.0 20.7 31.049999999999997 11.439
663 133 2 0.0 21.726719 31.049999999999997 9.987
664 133 2 0.0 20.18664 30.160835 9.987
665 133 2 0.0 20.18664 31.939164999999996 9.987
666 134 1 0.0 31.049999999999997 31.049999999999997 10.35
667 134 2 0.0 31.049999999999997 31.049999999999997 11.439
668 134 2 0.0 32.076719 31.049999999999997 9.987
669 134 2 0.0 30.53664 30.160835 9.987
670 134 2 0.0 30.53664 31.939164999999996 9.987
671 135 1 0.0 41.4 31.049999999999997 10.35
672 135 2 0.0 41.4 31.049999999999997 11.439
673 135 2 0.0 42.426719 31.049999999999997 9.987
674 135 2 0.0 40.88664 30.160835 9.987
675 135 2 0.0 40.88664 31.939164999999996 9.987
676 136 1 0.0 51.75 31.049999999999997 10.35
677 136 2 0.0 51.75 31.049999999999997 11.439
678 136 2 0.0 52.776719 31.049999999999997 9.987
679 136 2 0.0 51.23664 30.160835 9.987
680 136 2 0.0 51.23664 31.939164999999996 9.987
681 137 1 0.0 62.1 31.049999999999997 10.35
682 137 2 0.0 62.1 31.049999999999997 11.439
683 137 2 0.0 63.126719 31.049999999999997 9.987
684 137 2 0.0 61.58664 30.160835 9.987
685 137 2 0.0 61.58664 31.939164999999996 9.987
686 138 1 0.0 72.45 31.049999999999997 10.35
687 138 2 0.0 72.45 31.049999999999997 11.439
688 138 2 0.0 73.476719 31.049999999999997 9.987
689 138 2 0.0 71.93664 30.160835 9.987
690 138 2 0.0 71.93664 31.939164999999996 9.987
691 139 1 0.0 82.8 31.049999999999997 10.35
692 139 2 0.0 82.8 31.049999999999997 11.439
693 139 2 0.0 83.826719 31.049999999999997 9.987
694 139 2 0.0 82.28663999999999 30.160835 9.987
695 139 2 0.0 82.28663999999999 31.939164999999996 9.987
696 140 1 0.0 93.14999999999999 31.049999999999997 10.35
697 140 2 0.0 93.14999999999999 31.049999999999997 11.439
698 140 2 0.0 94.17671899999999 31.049999999999997 9.987
699 140 2 0.0 92.63663999999999 30.160835 9.987
700 140 2 0.0 92.63663999999999 31.939164999999996 9.987
701 141 1 0.0 0.0 41.4 10.35
702 141 2 0.0 0.0 41.4 11.439
703 141 2 0.0 1.026719 41.4 9.987
704 141 2 0.0 -0.51336 40.510835 9.987
705 141 2 0.0 -0.51336 42.289165 9.987
706 142 1 0.0 10.35 41.4 10.35
707 142 2 0.0 10.35 41.4 11.439
708 142 2 0.0 11.376719 41.4 9.987
709 142 2 0.0 9.83664 40.510835 9.987
710 142 2 0.0 9.83664 42.289165 9.987
711 143 1 0.0 20.7 41.4 10.35
712 143 2 0.0 20.7 41.4 11.439
713 143 2 0.0 21.726719 41.4 9.987
714 143 2 0.0 20.18664 40.510835 9.987
715 143 2 0.0 20.18664 42.289165 9.987
716 144 1 0.0 31.049999999999997 41.4 10.35
717 144 2 0.0 31.049999999999997 41.4 11.439
718 144 2 0.0 32.076719 41.4 9.987
719 144 2 0.0 30.53664 40.510835 9.987
720 144 2 0.0 30.53664 42.289165 9.987
721 145 1 0.0 41.4 41.4 10.35
722 145 2 0.0 41.4 41.4 11.439
723 145 2 0.0 42.426719 41.4 9.987
724 145 2 0.0 40.88664 40.510835 9.987
725 145 2 0.0 40.88664 42.289165 9.987
726 146 1 0.0 51.75 41.4 10.35
727 146 2 0.0 51.75 41.4 11.439
728 146 2 0.0 52.776719 41.4 9.987
729 146 2 0.0 51.23664 40.510835 9.987
730 146 2 0.0 51.23664 42.289165 9.987
731 147 1 0.0 62.1 41.4 10.35
732 147 2 0.0 62.1 41.4 11.439
733 147 2 0.0 63.126719 41.4 9.987
734 147 2 0.0 61.58664 40.510835 9.987
735 147 2 0.0 61.58664 42.289165 9.987
736 148 1 0.0 72.45 41.4 10.35
737 148 2 0.0 72.45 41.4 11.439
738 148 2 0.0 73.476719 41.4 9.987
739 148 2 0.0 71.93664 40.510835 9.987
740 148 2 0.0 71.93664 42.289165 9.987
741 149 1 0.0 82.8 41.4 10.35
742 149 2 0.0 82.8 41.4 11.439
743 149 2 0.0 83.826719 41.4 9.987
744 149 2 0.0 82.28663999999999 40.510835 9.987
745 149 2 0.0 82.28663999999999 42.289165 9.987
746 150 1 0.0 93.14999999999999 41.4 10.35
747 150 2 0.0 93.14999999999999 41.4 11.439
748 150 2 0.0 94.17671899999999 41.4 9.987
749 150 2 0.0 92.63663999999999 40.510835 9.987
750 150 2 0.0 92.63663999999999 42.289165 9.987
751 151 1 0.0 0.0 51.75 10.35
752 151 2 0.0 0.0 51.75 11.439
753 151 2 0.0 1.026719 51.75 9.987
754 151 2 0.0 -0.51336 50.860835 9.987
755 151 2 0.0 -0.51336 52.639165 9.987
756 152 1 0.0 10.35 51.75 10.35
757 152 2 0.0 10.35 51.75 11.439
758 152 2 0.0 11.376719 51.75 9.987
759 152 2 0.0 9.83664 50.860835 9.987
760 152 2 0.0 9.83664 52.639165 9.987
761 153 1 0.0 20.7 51.75 10.35
762 153 2 0.0 20.7 51.75 11.439
763 153 2 0.0 21.726719 51.75 9.987
764 153 2 0.0 20.18664 50.860835 9.987
765 153 2 0.0 20.18664 52.639165 9.987
766 154 1 0.0 31.049999999999997 51.75 10.35
767 154 2 0.0 31.049999999999997 51.75 11.439
768 154 2 0.0 32.076719 51.75 9.987
769 154 2 0.0 30.53664 50.860835 9.987
770 154 2 0.0 30.53664 52.639165 9.987
771 155 1 0.0 41.4 51.75 10.35
772 155 2 0.0 41.4 51.75 11.439
773 155 2 0.0 42.426719 51.75 9.987
774 155 2 0.0 40.88664 50.860835 9.987